/*--------------------------------*- C++ -*----------------------------------*\
| =========                 |                                                 |
| \\      /  F ield         | OpenFOAM: The Open Source CFD Toolbox           |
|  \\    /   O peration     | Version:  2412                                  |
|   \\  /    A nd           | Website:  www.openfoam.com                      |
|    \\/     M anipulation  |                                                 |
\*---------------------------------------------------------------------------*/
FoamFile
{
    version     2.0;
    format      ascii;
    arch        "LSB;label=32;scalar=64";
    class       volScalarField;
    location    "1234";
    object      p;
}
// * * * * * * * * * * * * * * * * * * * * * * * * * * * * * * * * * * * * * //

dimensions      [0 2 -2 0 0 0 0];

internalField   nonuniform List<scalar> 
231232
(
31340.9
36336.9
39304.5
38645.1
36736.2
34565.4
32511.1
30720.5
29247.2
28106
27296.5
26813.7
26653.3
26813.7
27296.5
28106
29247.2
30720.5
32511.1
34565.4
36736.2
38645.1
39304.5
36336.9
31340.9
36336.9
41676
56214.5
58704.5
55992.5
50821.8
44908.1
39205.3
34215
30193.3
27266.5
25494.1
24901
25494.1
27266.5
30193.3
34215
39205.3
44908.1
50821.8
55992.5
58704.5
56214.5
41676
36336.9
39304.5
56214.5
92381.1
107392
119052
127874
134014
138054
140606
142157
143049
143504
143642
143504
143049
142157
140606
138054
134014
127874
119052
107392
92381.1
56214.5
39304.5
38645.2
58704.5
107392
117805
126000
134926
143278
150246
155650
159591
162247
163773
164271
163773
162247
159591
155650
150246
143278
134926
126000
117805
107392
58704.5
38645.1
36736.2
55992.5
119052
126000
126877
130164
135316
140866
145881
149920
152827
154566
155144
154566
152827
149920
145881
140866
135316
130164
126877
126000
119052
55992.5
36736.2
34565.4
50821.8
127874
134926
130164
127150
127278
129362
132172
134891
137053
138422
138888
138422
137053
134891
132172
129362
127278
127150
130164
134926
127874
50821.8
34565.4
32511.1
44908.1
134014
143278
135316
127278
122553
120714
120639
121376
122275
122949
123194
122949
122275
121376
120639
120714
122553
127278
135316
143278
134014
44908.1
32511.1
30720.5
39205.3
138054
150246
140866
129362
120714
115330
112410
111047
110532
110396
110378
110396
110532
111047
112410
115330
120714
129362
140866
150246
138054
39205.3
30720.5
29247.2
34215
140606
155650
145881
132172
120639
112410
107052
103795
101956
101042
100769
101042
101956
103795
107052
112410
120639
132172
145881
155650
140606
34215
29247.2
28106
30193.3
142157
159591
149920
134891
121376
111047
103795
99012.2
96075.2
94506.1
94015.2
94506.1
96075.2
99012.2
103795
111047
121376
134891
149920
159591
142157
30193.3
28106
27296.5
27266.5
143049
162247
152827
137053
122275
110532
101956
96075.2
92333.3
90277
89623.3
90277
92333.3
96075.2
101956
110532
122275
137053
152827
162247
143049
27266.5
27296.5
26813.7
25494.1
143504
163773
154566
138422
122949
110396
101042
94506.1
90277
87923.3
87169.8
87923.3
90277
94506.2
101042
110396
122949
138422
154566
163773
143504
25494.1
26813.7
26653.3
24901
143642
164271
155144
138888
123194
110378
100769
94015.2
89623.3
87169.8
86382.8
87169.8
89623.3
94015.2
100769
110379
123194
138888
155144
164271
143642
24901
26653.3
26813.7
25494.1
143504
163773
154566
138422
122949
110396
101042
94506.1
90277
87923.3
87169.8
87923.3
90277
94506.2
101042
110396
122949
138422
154566
163773
143504
25494.1
26813.7
27296.5
27266.5
143049
162247
152827
137053
122275
110532
101956
96075.2
92333.3
90277
89623.3
90277
92333.3
96075.2
101956
110532
122275
137053
152827
162247
143049
27266.5
27296.5
28106
30193.3
142157
159591
149920
134891
121376
111047
103795
99012.2
96075.2
94506.2
94015.2
94506.1
96075.2
99012.2
103795
111047
121376
134891
149920
159591
142157
30193.3
28106
29247.2
34215
140606
155650
145881
132172
120639
112410
107052
103795
101956
101042
100769
101042
101956
103795
107052
112410
120639
132172
145881
155650
140606
34215
29247.2
30720.5
39205.3
138054
150246
140866
129362
120714
115330
112410
111047
110532
110396
110379
110396
110532
111047
112410
115330
120714
129362
140866
150246
138054
39205.3
30720.5
32511.1
44908.1
134014
143278
135316
127278
122553
120714
120639
121376
122275
122949
123194
122949
122275
121376
120639
120714
122553
127278
135316
143278
134014
44908.1
32511.1
34565.4
50821.9
127874
134926
130164
127150
127278
129362
132172
134891
137053
138422
138888
138422
137053
134891
132172
129362
127278
127150
130164
134926
127874
50821.9
34565.4
36736.2
55992.5
119052
126000
126877
130164
135316
140866
145881
149920
152827
154566
155144
154566
152827
149920
145881
140866
135316
130164
126877
126000
119052
55992.5
36736.2
38645.2
58704.5
107392
117805
126000
134926
143278
150246
155650
159591
162247
163773
164271
163773
162247
159591
155650
150246
143278
134926
126000
117805
107392
58704.5
38645.2
39304.5
56214.5
92381.1
107392
119052
127874
134014
138054
140606
142157
143049
143504
143642
143504
143049
142157
140606
138054
134014
127874
119052
107392
92381.1
56214.5
39304.5
36336.9
41676
56214.5
58704.5
55992.5
50821.8
44908.1
39205.3
34215
30193.3
27266.5
25494.1
24901
25494.1
27266.5
30193.3
34215
39205.3
44908.1
50821.9
55992.5
58704.5
56214.5
41676
36336.9
31340.9
36336.9
39304.5
38645.2
36736.2
34565.4
32511.1
30720.5
29247.2
28106
27296.5
26813.7
26653.3
26813.7
27296.5
28106
29247.2
30720.5
32511.1
34565.4
36736.2
38645.2
39304.5
36336.9
31340.9
23023
29628.8
39957.4
48475.1
54694.3
59148.2
62357.3
64684.7
66366.5
67554.4
68345.1
68798.1
68945.7
68798.1
68345.1
67554.4
66366.5
64684.7
62357.3
59148.2
54694.3
48475.1
39957.4
29628.8
23023
29628.8
-3087.25
-6173.29
-11837.7
-19151.9
-26774.6
-33908
-40153.1
-45330.3
-49369.6
-52251.7
-53977.3
-54551.7
-53977.3
-52251.7
-49369.6
-45330.3
-40153.1
-33908
-26774.6
-19151.9
-11837.7
-6173.29
-3087.25
29628.8
39957.4
-6173.29
10745.6
19464.3
22745.3
23283.7
22531.1
21249.4
19859.6
18605.3
17630
17016.5
16807.6
17016.5
17630
18605.3
19859.6
21249.4
22531.1
23283.7
22745.3
19464.3
10745.6
-6173.29
39957.4
48475.1
-11837.7
19464.3
37315.5
46618.1
51663.2
54551.8
56252.4
57250.3
57819.3
58126.4
58273.6
58316.8
58273.6
58126.4
57819.3
57250.3
56252.4
54551.9
51663.2
46618.1
37315.5
19464.3
-11837.7
48475.1
54694.3
-19151.8
22745.3
46618.1
59053.7
65955.9
70225
73101.8
75117.7
76522.5
77450.4
77979.2
78151
77979.2
77450.4
76522.5
75117.7
73101.8
70225
65955.9
59053.7
46618.1
22745.3
-19151.9
54694.3
59148.2
-26774.6
23283.7
51663.2
65955.9
73412
77777.1
80673.3
82748.3
84253.4
85288.9
85897.5
86098.6
85897.5
85288.9
84253.5
82748.3
80673.3
77777.2
73412
65955.9
51663.2
23283.7
-26774.6
59148.2
62357.3
-33908
22531.1
54551.8
70225
77777.1
81705.2
84055
85659.4
86822.3
87638
88127.5
88291.2
88127.5
87638
86822.3
85659.5
84055.1
81705.2
77777.1
70225
54551.9
22531.1
-33908
62357.3
64684.7
-40153.1
21249.4
56252.4
73101.8
80673.3
84055
85687.2
86615.9
87237.1
87671.5
87937.9
88028.5
87938
87671.5
87237.1
86615.9
85687.2
84055.1
80673.3
73101.8
56252.4
21249.4
-40153.1
64684.7
66366.5
-45330.3
19859.6
57250.3
75117.6
82748.3
85659.4
86615.9
86866.9
86915.9
86930.3
86943.9
86950.4
86943.9
86930.3
86915.9
86866.9
86615.9
85659.5
82748.3
75117.7
57250.3
19859.6
-45330.3
66366.5
67554.4
-49369.6
18605.3
57819.3
76522.5
84253.4
86822.2
87237.1
86915.9
86463.1
86099.2
85880.9
85809.5
85880.9
86099.2
86463.1
86915.9
87237.1
86822.3
84253.5
76522.5
57819.3
18605.3
-49369.6
67554.4
68345.1
-52251.7
17630
58126.4
77450.4
85288.8
87638
87671.5
86930.3
86099.2
85444.9
85046.1
84913.7
85046.1
85444.9
86099.2
86930.3
87671.5
87638
85288.9
77450.4
58126.4
17630
-52251.7
68345.1
68798.1
-53977.3
17016.5
58273.6
77979.2
85897.5
88127.5
87937.9
86943.9
85880.9
85046.1
84534
84363.1
84534
85046.1
85880.9
86943.9
87938
88127.5
85897.6
77979.2
58273.6
17016.5
-53977.3
68798.1
68945.7
-54551.7
16807.6
58316.7
78151
86098.6
88291.1
88028.5
86950.4
85809.5
84913.7
84363.1
84179.2
84363.1
84913.7
85809.5
86950.4
88028.5
88291.2
86098.6
78151
58316.8
16807.6
-54551.7
68945.7
68798.1
-53977.3
17016.5
58273.6
77979.2
85897.5
88127.5
87937.9
86943.9
85880.9
85046.1
84534
84363.1
84534
85046.1
85880.9
86943.9
87938
88127.5
85897.6
77979.2
58273.6
17016.5
-53977.3
68798.1
68345.1
-52251.7
17630
58126.4
77450.4
85288.8
87638
87671.5
86930.3
86099.2
85444.9
85046.1
84913.7
85046.1
85444.9
86099.2
86930.3
87671.5
87638
85288.9
77450.4
58126.4
17630
-52251.7
68345.1
67554.4
-49369.6
18605.3
57819.3
76522.5
84253.4
86822.3
87237.1
86915.9
86463.1
86099.2
85880.9
85809.5
85880.9
86099.2
86463.1
86915.9
87237.2
86822.3
84253.5
76522.5
57819.3
18605.3
-49369.6
67554.4
66366.5
-45330.3
19859.6
57250.3
75117.7
82748.3
85659.5
86615.9
86866.9
86915.9
86930.3
86943.9
86950.4
86943.9
86930.3
86915.9
86866.9
86615.9
85659.5
82748.3
75117.7
57250.3
19859.6
-45330.3
66366.5
64684.7
-40153.1
21249.4
56252.4
73101.8
80673.3
84055.1
85687.2
86615.9
87237.2
87671.5
87938
88028.5
87938
87671.5
87237.1
86615.9
85687.2
84055.1
80673.3
73101.8
56252.4
21249.4
-40153.1
64684.7
62357.3
-33908
22531.1
54551.9
70225
77777.1
81705.2
84055.1
85659.5
86822.3
87638
88127.5
88291.2
88127.5
87638
86822.3
85659.5
84055.1
81705.2
77777.2
70225
54551.9
22531.1
-33908
62357.3
59148.2
-26774.6
23283.7
51663.2
65955.9
73412
77777.2
80673.3
82748.3
84253.5
85288.9
85897.6
86098.6
85897.6
85288.9
84253.5
82748.3
80673.3
77777.2
73412
65955.9
51663.2
23283.7
-26774.6
59148.2
54694.3
-19151.8
22745.3
46618.1
59053.7
65955.9
70225
73101.8
75117.7
76522.5
77450.5
77979.2
78151
77979.2
77450.4
76522.5
75117.7
73101.8
70225
65955.9
59053.7
46618.1
22745.3
-19151.8
54694.3
48475.1
-11837.7
19464.3
37315.5
46618.1
51663.2
54551.9
56252.4
57250.3
57819.3
58126.4
58273.6
58316.8
58273.6
58126.4
57819.3
57250.3
56252.4
54551.9
51663.2
46618.1
37315.5
19464.3
-11837.7
48475.1
39957.4
-6173.28
10745.6
19464.3
22745.3
23283.7
22531.1
21249.4
19859.6
18605.3
17630
17016.5
16807.6
17016.5
17630
18605.3
19859.6
21249.4
22531.1
23283.7
22745.3
19464.3
10745.6
-6173.29
39957.4
29628.8
-3087.25
-6173.28
-11837.7
-19151.8
-26774.6
-33908
-40153.1
-45330.3
-49369.6
-52251.7
-53977.3
-54551.7
-53977.3
-52251.7
-49369.6
-45330.3
-40153.1
-33908
-26774.6
-19151.8
-11837.7
-6173.28
-3087.25
29628.8
23023
29628.8
39957.4
48475.1
54694.3
59148.2
62357.3
64684.7
66366.5
67554.4
68345.1
68798.1
68945.7
68798.1
68345.1
67554.4
66366.5
64684.7
62357.3
59148.2
54694.3
48475.1
39957.4
29628.8
23023
11691.8
19504.2
26675.1
32464.6
36849.6
40094.1
42481.6
44234.6
45510.2
46414.9
47018.5
47364.7
47477.6
47364.7
47018.5
46414.9
45510.2
44234.6
42481.6
40094.1
36849.6
32464.6
26675.1
19504.2
11691.8
19504.2
12310.3
12009.4
9861.61
6113.12
1553.65
-3115.29
-7437.05
-11150
-14114.8
-16261.9
-17558.9
-17992.5
-17558.9
-16261.9
-14114.8
-11150
-7437.04
-3115.29
1553.65
6113.11
9861.6
12009.4
12310.3
19504.2
26675.1
12009.4
20078.3
25567.4
28426.5
29319.7
29017.7
28117.7
27020.9
25980.6
25151.2
24622.7
24441.7
24622.7
25151.2
25980.6
27020.9
28117.7
29017.7
29319.7
28426.5
25567.4
20078.3
12009.4
26675.1
32464.6
9861.61
25567.5
36659.3
43828.5
48248.9
50882.7
52396
53224.9
53649.9
53848.5
53929
53949.7
53929
53848.5
53649.9
53224.9
52396
50882.7
48248.9
43828.5
36659.3
25567.5
9861.61
32464.6
36849.6
6113.12
28426.5
43828.5
53622.2
59822.4
63843.6
66518.2
68319.7
69522
70288.1
70713.8
70850.3
70713.8
70288.1
69522.1
68319.7
66518.2
63843.6
59822.4
53622.2
43828.5
28426.5
6113.12
36849.6
40094.1
1553.66
29319.7
48248.9
59822.4
66813.7
71203.8
74110.1
76109.2
77492.4
78408.2
78933.2
79104.5
78933.2
78408.2
77492.4
76109.3
74110.1
71203.8
66813.7
59822.4
48248.9
29319.7
1553.65
40094.1
42481.6
-3115.28
29017.7
50882.7
63843.6
71203.8
75470.8
78095.2
79817.1
80986.7
81761.4
82208.9
82355.7
82208.9
81761.5
80986.7
79817.1
78095.3
75470.8
71203.8
63843.6
50882.7
29017.7
-3115.29
42481.6
44234.6
-7437.03
28117.7
52396
66518.2
74110.1
78095.2
80240.1
81471.3
82229.8
82706.9
82977.2
83065.6
82977.2
82706.9
82229.8
81471.4
80240.1
78095.3
74110.1
66518.2
52396
28117.7
-7437.04
44234.6
45510.2
-11149.9
27020.9
53224.9
68319.7
76109.2
79817.1
81471.3
82175.9
82472.7
82603.1
82662
82679.6
82662
82603.2
82472.8
82175.9
81471.4
79817.1
76109.3
68319.7
53224.9
27020.9
-11150
45510.2
46414.9
-14114.8
25980.6
53649.9
69522
77492.4
80986.7
82229.8
82472.7
82351.3
82160.1
82020.3
81970.8
82020.3
82160.1
82351.3
82472.8
82229.8
80986.7
77492.4
69522.1
53649.9
25980.6
-14114.8
46414.9
47018.5
-16261.9
25151.2
53848.5
70288
78408.2
81761.4
82706.9
82603.1
82160.1
81719.8
81423.1
81320.2
81423.1
81719.9
82160.1
82603.2
82706.9
81761.5
78408.2
70288.1
53848.5
25151.2
-16261.9
47018.5
47364.7
-17558.9
24622.7
53929
70713.7
78933.1
82208.8
82977.2
82662
82020.3
81423.1
81026.6
80889.6
81026.6
81423.1
82020.3
82662.1
82977.3
82208.9
78933.2
70713.8
53929
24622.7
-17558.9
47364.7
47477.6
-17992.5
24441.7
53949.7
70850.3
79104.4
82355.7
83065.6
82679.6
81970.8
81320.2
80889.6
80740.9
80889.6
81320.2
81970.8
82679.6
83065.6
82355.7
79104.5
70850.3
53949.7
24441.7
-17992.5
47477.6
47364.7
-17558.9
24622.7
53929
70713.8
78933.2
82208.9
82977.2
82662
82020.3
81423.1
81026.6
80889.6
81026.6
81423.1
82020.3
82662.1
82977.3
82208.9
78933.2
70713.8
53929
24622.7
-17558.9
47364.7
47018.5
-16261.9
25151.2
53848.5
70288.1
78408.2
81761.4
82706.9
82603.1
82160.1
81719.9
81423.1
81320.2
81423.1
81719.9
82160.1
82603.2
82706.9
81761.5
78408.2
70288.1
53848.5
25151.2
-16261.9
47018.5
46414.9
-14114.8
25980.6
53649.9
69522.1
77492.4
80986.7
82229.8
82472.8
82351.3
82160.1
82020.3
81970.8
82020.3
82160.1
82351.4
82472.8
82229.8
80986.7
77492.4
69522.1
53649.9
25980.6
-14114.8
46414.9
45510.2
-11149.9
27020.9
53224.9
68319.7
76109.2
79817.1
81471.4
82175.9
82472.8
82603.2
82662
82679.6
82662
82603.2
82472.8
82175.9
81471.4
79817.2
76109.3
68319.7
53224.9
27020.9
-11149.9
45510.2
44234.6
-7437.02
28117.7
52396
66518.2
74110.1
78095.3
80240.1
81471.4
82229.8
82706.9
82977.2
83065.6
82977.2
82706.9
82229.8
81471.4
80240.1
78095.3
74110.1
66518.2
52396
28117.7
-7437.03
44234.6
42481.6
-3115.27
29017.7
50882.7
63843.6
71203.8
75470.8
78095.3
79817.1
80986.7
81761.5
82208.9
82355.7
82208.9
81761.5
80986.7
79817.2
78095.3
75470.8
71203.8
63843.6
50882.7
29017.7
-3115.28
42481.6
40094.1
1553.67
29319.7
48248.9
59822.5
66813.7
71203.8
74110.1
76109.3
77492.4
78408.2
78933.2
79104.5
78933.2
78408.2
77492.4
76109.3
74110.1
71203.8
66813.7
59822.5
48248.9
29319.7
1553.66
40094.1
36849.6
6113.13
28426.5
43828.5
53622.2
59822.5
63843.6
66518.2
68319.7
69522.1
70288.1
70713.8
70850.3
70713.8
70288.1
69522.1
68319.7
66518.2
63843.6
59822.5
53622.2
43828.5
28426.5
6113.13
36849.6
32464.6
9861.62
25567.5
36659.3
43828.5
48248.9
50882.7
52396
53224.9
53649.9
53848.5
53929
53949.7
53929
53848.5
53649.9
53224.9
52396
50882.7
48248.9
43828.5
36659.3
25567.5
9861.61
32464.6
26675.1
12009.4
20078.3
25567.5
28426.5
29319.7
29017.7
28117.7
27020.9
25980.6
25151.2
24622.7
24441.7
24622.7
25151.2
25980.6
27020.9
28117.7
29017.7
29319.7
28426.5
25567.5
20078.3
12009.4
26675.1
19504.2
12310.3
12009.4
9861.62
6113.13
1553.67
-3115.28
-7437.03
-11149.9
-14114.8
-16261.9
-17558.9
-17992.5
-17558.9
-16261.9
-14114.8
-11149.9
-7437.03
-3115.28
1553.66
6113.13
9861.62
12009.4
12310.3
19504.2
11691.8
19504.2
26675.1
32464.6
36849.6
40094.1
42481.6
44234.6
45510.2
46414.9
47018.5
47364.7
47477.6
47364.7
47018.5
46414.9
45510.2
44234.6
42481.6
40094.1
36849.6
32464.6
26675.1
19504.2
11691.8
5122.2
9515.18
13741.7
17344.4
20224.8
22448.2
24131.9
25390.2
26315.4
26975.2
27416.6
27670.2
27752.8
27670.2
27416.6
26975.2
26315.4
25390.2
24131.9
22448.2
20224.8
17344.4
13741.7
9515.18
5122.2
9515.18
8801.25
9951.66
9416.37
7533.75
4833.78
1825.71
-1110.77
-3725.44
-5864.77
-7439.33
-8399.97
-8722.58
-8399.97
-7439.33
-5864.76
-3725.44
-1110.77
1825.71
4833.79
7533.75
9416.36
9951.66
8801.24
9515.18
13741.7
9951.67
15924.8
20062.8
22435.2
23352.4
23282.3
22660.4
21817.3
20980.6
20297.1
19855.7
19703.7
19855.7
20297.1
20980.6
21817.3
22660.4
23282.3
23352.4
22435.2
20062.8
15924.8
9951.66
13741.7
17344.4
9416.37
20062.8
28080.8
33713.9
37383.5
39602.7
40840.8
41463.2
41730
41815
41826.8
41824.4
41826.8
41815
41730
41463.2
40840.8
39602.7
37383.5
33713.9
28080.8
20062.8
9416.37
17344.4
20224.8
7533.76
22435.2
33713.9
41732.3
47215.7
50875.7
53278.7
54832.4
55814.9
56407.6
56722.9
56821.6
56722.9
56407.6
55814.9
54832.5
53278.7
50875.7
47215.7
41732.3
33713.9
22435.2
7533.75
20224.8
22448.2
4833.79
23352.4
37383.5
47215.7
53860.3
58301.2
61270.8
63257.7
64571.4
65402.1
65861.7
66008.8
65861.7
65402.1
64571.4
63257.7
61270.9
58301.3
53860.3
47215.7
37383.5
23352.4
4833.79
22448.2
24131.9
1825.72
23282.3
39602.7
50875.7
58301.2
63122.6
66266.8
68336.1
69694.8
70554.1
71031
71184.1
71031
70554.1
69694.9
68336.2
66266.9
63122.6
58301.3
50875.7
39602.7
23282.3
1825.71
24131.9
25390.2
-1110.76
22660.4
40840.8
53278.7
61270.8
66266.8
69378.9
71334.2
72568
73325.8
73739
73870.6
73739.1
73325.8
72568.1
71334.3
69378.9
66266.9
61270.9
53278.7
40840.8
22660.4
-1110.77
25390.2
26315.4
-3725.43
21817.3
41463.2
54832.4
63257.7
68336.1
71334.2
73096.2
74131.7
74728.4
75039.8
75136.8
75039.8
74728.4
74131.8
73096.3
71334.3
68336.2
63257.7
54832.5
41463.2
21817.3
-3725.44
26315.4
26975.2
-5864.75
20980.6
41730
55814.9
64571.4
69694.8
72568
74131.7
74961.9
75389.3
75595.9
75657.1
75595.9
75389.3
74961.9
74131.8
72568.1
69694.9
64571.4
55814.9
41730
20980.6
-5864.76
26975.2
27416.6
-7439.32
20297.1
41815
56407.6
65402.1
70554
73325.8
74728.4
75389.3
75686.9
75806
75836.7
75806.1
75686.9
75389.3
74728.4
73325.9
70554.1
65402.1
56407.6
41815
20297.1
-7439.33
27416.6
27670.2
-8399.95
19855.7
41826.7
56722.9
65861.7
71031
73739
75039.8
75595.9
75806
75867
75877.2
75867
75806.1
75595.9
75039.8
73739.1
71031
65861.7
56722.9
41826.8
19855.7
-8399.96
27670.2
27752.8
-8722.56
19703.7
41824.4
56821.6
66008.8
71184.1
73870.6
75136.8
75657.1
75836.7
75877.2
75880.3
75877.2
75836.7
75657.1
75136.8
73870.7
71184.2
66008.8
56821.6
41824.4
19703.7
-8722.57
27752.8
27670.2
-8399.95
19855.7
41826.8
56722.9
65861.7
71031
73739
75039.8
75595.9
75806
75867
75877.2
75867
75806.1
75596
75039.8
73739.1
71031.1
65861.7
56722.9
41826.8
19855.7
-8399.96
27670.2
27416.6
-7439.31
20297.1
41815
56407.6
65402.1
70554.1
73325.8
74728.4
75389.3
75686.9
75806
75836.7
75806.1
75686.9
75389.3
74728.4
73325.9
70554.1
65402.1
56407.6
41815
20297.1
-7439.32
27416.6
26975.2
-5864.75
20980.6
41730
55814.9
64571.4
69694.8
72568
74131.8
74961.9
75389.3
75595.9
75657.1
75595.9
75389.3
74962
74131.8
72568.1
69694.9
64571.4
55814.9
41730
20980.6
-5864.76
26975.2
26315.4
-3725.43
21817.3
41463.3
54832.5
63257.7
68336.2
71334.3
73096.3
74131.8
74728.4
75039.8
75136.8
75039.8
74728.4
74131.8
73096.3
71334.3
68336.2
63257.7
54832.5
41463.3
21817.3
-3725.43
26315.4
25390.2
-1110.76
22660.4
40840.8
53278.7
61270.9
66266.9
69378.9
71334.3
72568.1
73325.8
73739.1
73870.6
73739.1
73325.8
72568.1
71334.3
69378.9
66266.9
61270.9
53278.7
40840.8
22660.4
-1110.76
25390.2
24131.9
1825.73
23282.4
39602.8
50875.7
58301.3
63122.6
66266.9
68336.2
69694.9
70554.1
71031
71184.2
71031
70554.1
69694.9
68336.2
66266.9
63122.6
58301.3
50875.7
39602.8
23282.4
1825.72
24131.9
22448.2
4833.8
23352.4
37383.5
47215.7
53860.3
58301.3
61270.9
63257.7
64571.4
65402.1
65861.7
66008.8
65861.7
65402.1
64571.4
63257.7
61270.9
58301.3
53860.3
47215.7
37383.5
23352.4
4833.8
22448.2
20224.8
7533.76
22435.3
33713.9
41732.4
47215.7
50875.7
53278.7
54832.5
55814.9
56407.6
56722.9
56821.6
56722.9
56407.6
55814.9
54832.5
53278.7
50875.7
47215.7
41732.4
33713.9
22435.3
7533.76
20224.8
17344.4
9416.38
20062.9
28080.8
33713.9
37383.5
39602.8
40840.8
41463.3
41730
41815
41826.8
41824.5
41826.8
41815
41730
41463.3
40840.8
39602.8
37383.5
33713.9
28080.8
20062.9
9416.37
17344.4
13741.7
9951.67
15924.8
20062.9
22435.3
23352.4
23282.4
22660.4
21817.3
20980.6
20297.1
19855.7
19703.7
19855.7
20297.1
20980.6
21817.3
22660.4
23282.4
23352.4
22435.3
20062.9
15924.8
9951.67
13741.7
9515.18
8801.25
9951.67
9416.38
7533.76
4833.8
1825.72
-1110.76
-3725.43
-5864.75
-7439.32
-8399.96
-8722.57
-8399.96
-7439.32
-5864.76
-3725.43
-1110.76
1825.72
4833.8
7533.76
9416.37
9951.67
8801.25
9515.18
5122.2
9515.18
13741.7
17344.4
20224.8
22448.2
24131.9
25390.2
26315.4
26975.2
27416.6
27670.2
27752.8
27670.2
27416.6
26975.2
26315.4
25390.2
24131.9
22448.2
20224.8
17344.4
13741.7
9515.18
5122.2
2576.96
5117.59
7713.88
10040.8
11990.5
13555.7
14776.9
15708.9
16403.7
16903.4
17239.4
17432.9
17496.1
17432.9
17239.4
16903.4
16403.7
15708.9
14776.9
13555.7
11990.5
10040.8
7713.88
5117.59
2576.96
5117.59
5934.29
7514.28
7871.4
7180.41
5767.85
3981.99
2112.22
370.875
-1097.56
-2200.26
-2881.36
-3111.45
-2881.36
-2200.26
-1097.56
370.88
2112.23
3982
5767.85
7180.41
7871.4
7514.28
5934.29
5117.59
7713.88
7514.28
12293.2
15785.8
18020.9
19153.6
19469.6
19272.2
18817.3
18296.7
17842.6
17539.5
17433.5
17539.5
17842.7
18296.7
18817.4
19272.2
19469.7
19153.6
18020.9
15785.8
12293.2
7514.28
7713.88
10040.8
7871.4
15785.8
22013.8
26659.3
29883.8
31960.8
33198.3
33872.2
34198.7
34332.6
34375.2
34383.4
34375.3
34332.6
34198.7
33872.2
33198.3
31960.8
29883.8
26659.3
22013.8
15785.8
7871.4
10040.8
11990.5
7180.42
18020.9
26659.3
33235.9
38025.9
41381.1
43654.1
45147.6
46095.7
46665.5
46966.7
47060.5
46966.7
46665.6
46095.7
45147.6
43654.1
41381.1
38026
33235.9
26659.3
18020.9
7180.41
11990.5
13555.7
5767.86
19153.6
29883.8
38026
43965.9
48180.1
51108.4
53104.3
54428.7
55261.9
55719.5
55865.2
55719.5
55261.9
54428.7
53104.3
51108.4
48180.1
43965.9
38026
29883.8
19153.6
5767.85
13555.7
14776.9
3982
19469.6
31960.8
41381.1
48180.1
52957.4
56259.1
58509.3
60009.3
60959.7
61485.2
61653.3
61485.2
60959.7
60009.4
58509.4
56259.2
52957.5
48180.1
41381.1
31960.8
19469.6
3982
14776.9
15708.9
2112.23
19272.2
33198.3
43654.1
51108.4
56259.1
59755
62098
63638.6
64604.7
65135.3
65304.4
65135.3
64604.8
63638.6
62098
59755.1
56259.2
51108.4
43654.1
33198.3
19272.2
2112.23
15708.9
16403.7
370.886
18817.4
33872.2
45147.6
53104.3
58509.3
62098
64445
65950.9
66874.2
67373.1
67531.1
67373.1
66874.2
65950.9
64445
62098
58509.4
53104.3
45147.6
33872.2
18817.4
370.879
16403.7
16903.4
-1097.55
18296.7
34198.7
46095.7
54428.7
60009.3
63638.6
65950.9
67388.1
68233.2
68692.9
68836.3
68692.9
68233.2
67388.1
65950.9
63638.6
60009.4
54428.7
46095.7
34198.7
18296.7
-1097.56
16903.4
17239.4
-2200.25
17842.7
34332.6
46665.5
55261.9
60959.7
64604.7
66874.1
68233.2
69041.4
69458.8
69586.7
69458.8
69041.4
68233.2
66874.2
64604.8
60959.7
55261.9
46665.5
34332.6
17842.6
-2200.26
17239.4
17432.9
-2881.35
17539.5
34375.2
46966.7
55719.5
61485.2
65135.3
67373.1
68692.9
69458.8
69844.7
69961
69844.7
69458.8
68692.9
67373.1
65135.3
61485.2
55719.5
46966.7
34375.2
17539.5
-2881.36
17432.9
17496.1
-3111.43
17433.5
34383.4
47060.5
55865.2
61653.2
65304.4
67531
68836.3
69586.7
69961
70072.8
69961.1
69586.8
68836.4
67531.1
65304.4
61653.3
55865.2
47060.5
34383.4
17433.5
-3111.44
17496.1
17432.9
-2881.34
17539.5
34375.2
46966.7
55719.5
61485.2
65135.3
67373.1
68692.9
69458.8
69844.7
69961
69844.7
69458.8
68693
67373.1
65135.3
61485.2
55719.5
46966.7
34375.2
17539.5
-2881.36
17432.9
17239.4
-2200.24
17842.7
34332.6
46665.6
55261.9
60959.7
64604.8
66874.2
68233.2
69041.4
69458.8
69586.7
69458.8
69041.4
68233.2
66874.2
64604.8
60959.7
55261.9
46665.6
34332.6
17842.7
-2200.25
17239.4
16903.4
-1097.55
18296.7
34198.7
46095.7
54428.7
60009.3
63638.6
65950.9
67388.1
68233.2
68692.9
68836.3
68692.9
68233.2
67388.2
65950.9
63638.7
60009.4
54428.7
46095.7
34198.7
18296.7
-1097.56
16903.4
16403.7
370.893
18817.4
33872.2
45147.6
53104.3
58509.4
62098
64445
65950.9
66874.2
67373.1
67531.1
67373.1
66874.2
65950.9
64445.1
62098.1
58509.4
53104.4
45147.6
33872.2
18817.4
370.885
16403.7
15708.9
2112.24
19272.2
33198.3
43654.1
51108.5
56259.2
59755.1
62098.1
63638.6
64604.8
65135.3
65304.4
65135.3
64604.8
63638.7
62098.1
59755.1
56259.2
51108.5
43654.1
33198.3
19272.2
2112.24
15708.9
14776.9
3982.01
19469.7
31960.8
41381.2
48180.1
52957.5
56259.2
58509.4
60009.4
60959.7
61485.2
61653.3
61485.2
60959.7
60009.4
58509.4
56259.2
52957.5
48180.2
41381.2
31960.8
19469.7
3982
14776.9
13555.7
5767.87
19153.6
29883.8
38026
43965.9
48180.1
51108.5
53104.4
54428.7
55261.9
55719.5
55865.2
55719.5
55261.9
54428.7
53104.4
51108.5
48180.2
43965.9
38026
29883.8
19153.6
5767.86
13555.7
11990.5
7180.42
18020.9
26659.3
33235.9
38026
41381.2
43654.1
45147.6
46095.7
46665.6
46966.7
47060.5
46966.7
46665.6
46095.7
45147.6
43654.1
41381.2
38026
33235.9
26659.3
18020.9
7180.42
11990.5
10040.8
7871.41
15785.8
22013.8
26659.3
29883.8
31960.8
33198.3
33872.2
34198.7
34332.6
34375.3
34383.4
34375.3
34332.6
34198.7
33872.2
33198.3
31960.8
29883.8
26659.3
22013.8
15785.8
7871.41
10040.8
7713.88
7514.29
12293.2
15785.8
18020.9
19153.6
19469.7
19272.2
18817.4
18296.7
17842.7
17539.5
17433.5
17539.5
17842.7
18296.7
18817.4
19272.2
19469.7
19153.6
18020.9
15785.8
12293.2
7514.29
7713.88
5117.59
5934.3
7514.29
7871.41
7180.42
5767.86
3982.01
2112.24
370.889
-1097.55
-2200.25
-2881.35
-3111.44
-2881.35
-2200.25
-1097.55
370.888
2112.24
3982.01
5767.86
7180.42
7871.41
7514.29
5934.3
5117.59
2576.96
5117.59
7713.88
10040.8
11990.5
13555.7
14776.9
15708.9
16403.7
16903.4
17239.4
17432.9
17496.1
17432.9
17239.4
16903.4
16403.7
15708.9
14776.9
13555.7
11990.5
10040.8
7713.88
5117.59
2576.96
1461.21
3048.76
4742.41
6321.92
7697.02
8839.45
9756.49
10472
11014
11408.2
11675.3
11829.7
11880.3
11829.7
11675.3
11408.2
11014
10472
9756.49
8839.46
7697.02
6321.93
4742.41
3048.76
1461.21
3048.76
4156.37
5707.84
6452.64
6437.23
5841.46
4888.57
3784.22
2693.62
1738.81
1004.15
543.587
386.903
543.588
1004.15
1738.82
2693.63
3784.22
4888.57
5841.47
6437.23
6452.65
5707.84
4156.37
3048.76
4742.41
5707.84
9539.25
12524.7
14627.5
15906.6
16527
16690
16582.6
16355.9
16120.9
15951.9
15891
15951.9
16120.9
16355.9
16582.6
16690
16527
15906.6
14627.5
12524.7
9539.25
5707.84
4742.41
6321.93
6452.65
12524.7
17511.6
21425.1
24307.5
26296.5
27584.3
28365.6
28807.1
29036
29139.8
29168.9
29139.8
29036
28807.1
28365.6
27584.3
26296.5
24307.5
21425.1
17511.6
12524.7
6452.65
6321.93
7697.02
6437.24
14627.5
21425.1
26864.3
31034.1
34099.6
36268.9
37749.8
38721
39320.4
39643.2
39744.8
39643.2
39320.4
38721
37749.8
36268.9
34099.6
31034.1
26864.3
21425.1
14627.5
6437.24
7697.02
8839.46
5841.47
15906.6
24307.5
31034.1
36221.8
40092.5
42897.2
44871.9
46213.6
47071.1
47546.6
47698.7
47546.6
47071.1
46213.6
44871.9
42897.2
40092.6
36221.9
31034.1
24307.5
15906.6
5841.47
8839.46
9756.49
4888.57
16527
26296.5
34099.6
40092.5
44555.6
47795.7
50090.3
51662.4
52676.6
53243.7
53425.9
53243.7
52676.6
51662.5
50090.3
47795.8
44555.6
40092.6
34099.6
26296.5
16527
4888.57
9756.49
10472
3784.23
16690
27584.3
36268.9
42897.2
47795.7
51327.3
53815.3
55515.2
56610.1
57221.2
57417.4
57221.2
56610.1
55515.2
53815.3
51327.3
47795.8
42897.2
36268.9
27584.3
16690
3784.22
10472
11014
2693.63
16582.6
28365.6
37749.8
44871.9
50090.3
53815.3
56414.8
58177.1
59304.7
59925.9
60125.5
59925.9
59304.7
58177.1
56414.8
53815.3
50090.3
44871.9
37749.8
28365.6
16582.6
2693.62
11014
11408.2
1738.82
16355.9
28807.1
38721
46213.5
51662.4
55515.2
58177.1
59961.4
61054.2
61678.3
61877
61678.4
61054.2
59961.4
58177.1
55515.2
51662.5
46213.6
38721
28807.1
16355.9
1738.81
11408.2
11675.3
1004.15
16120.9
29036
39320.4
47071.1
52676.6
56610.1
59304.7
61054.2
62168.9
62778.6
62970.3
62778.6
62168.9
61054.3
59304.7
56610.1
52676.6
47071.1
39320.4
29036
16120.9
1004.15
11675.3
11829.7
543.596
15951.9
29139.8
39643.2
47546.6
53243.6
57221.2
59925.9
61678.3
62778.6
63370.8
63555.5
63370.9
62778.6
61678.4
59926
57221.3
53243.7
47546.6
39643.2
29139.8
15951.9
543.586
11829.7
11880.3
386.913
15891
29168.9
39744.8
47698.7
53425.9
57417.4
60125.5
61877
62970.3
63555.5
63736.2
63555.6
62970.4
61877.1
60125.5
57417.4
53425.9
47698.7
39744.8
29168.9
15891
386.903
11880.3
11829.7
543.598
15951.9
29139.8
39643.2
47546.6
53243.7
57221.2
59925.9
61678.3
62778.6
63370.8
63555.5
63370.9
62778.7
61678.4
59926
57221.3
53243.7
47546.6
39643.3
29139.8
15951.9
543.589
11829.7
11675.3
1004.16
16120.9
29036
39320.4
47071.1
52676.6
56610.1
59304.7
61054.2
62168.9
62778.6
62970.3
62778.6
62169
61054.3
59304.7
56610.2
52676.6
47071.1
39320.4
29036
16120.9
1004.15
11675.3
11408.2
1738.83
16355.9
28807.1
38721
46213.6
51662.5
55515.2
58177.1
59961.4
61054.2
61678.3
61877
61678.4
61054.3
59961.5
58177.2
55515.3
51662.5
46213.6
38721
28807.1
16355.9
1738.82
11408.2
11014
2693.64
16582.6
28365.6
37749.8
44872
50090.3
53815.3
56414.8
58177.1
59304.7
59925.9
60125.5
59926
59304.7
58177.2
56414.8
53815.3
50090.3
44872
37749.8
28365.6
16582.6
2693.63
11014
10472
3784.23
16690
27584.3
36268.9
42897.2
47795.8
51327.3
53815.3
55515.3
56610.2
57221.3
57417.4
57221.3
56610.2
55515.3
53815.3
51327.3
47795.8
42897.2
36268.9
27584.3
16690
3784.23
10472
9756.49
4888.58
16527
26296.5
34099.6
40092.6
44555.6
47795.8
50090.3
51662.5
52676.6
53243.7
53425.9
53243.7
52676.6
51662.5
50090.3
47795.8
44555.6
40092.6
34099.6
26296.5
16527
4888.58
9756.49
8839.46
5841.48
15906.6
24307.5
31034.2
36221.9
40092.6
42897.2
44872
46213.6
47071.1
47546.6
47698.8
47546.6
47071.1
46213.6
44872
42897.2
40092.6
36221.9
31034.2
24307.5
15906.6
5841.48
8839.46
7697.02
6437.25
14627.5
21425.1
26864.3
31034.2
34099.6
36268.9
37749.8
38721.1
39320.4
39643.3
39744.9
39643.3
39320.4
38721.1
37749.8
36268.9
34099.6
31034.2
26864.3
21425.1
14627.5
6437.24
7697.02
6321.93
6452.66
12524.7
17511.6
21425.1
24307.5
26296.5
27584.3
28365.6
28807.1
29036
29139.8
29168.9
29139.8
29036
28807.1
28365.6
27584.3
26296.5
24307.5
21425.1
17511.6
12524.7
6452.65
6321.93
4742.41
5707.85
9539.27
12524.7
14627.5
15906.6
16527
16690
16582.6
16355.9
16120.9
15951.9
15891
15951.9
16120.9
16355.9
16582.6
16690
16527
15906.6
14627.5
12524.7
9539.26
5707.85
4742.41
3048.77
4156.38
5707.85
6452.66
6437.25
5841.48
4888.58
3784.23
2693.64
1738.83
1004.16
543.597
386.913
543.596
1004.16
1738.82
2693.63
3784.23
4888.58
5841.48
6437.25