/*--------------------------------*- C++ -*----------------------------------*\
| =========                 |                                                 |
| \\      /  F ield         | OpenFOAM: The Open Source CFD Toolbox           |
|  \\    /   O peration     | Version:  2412                                  |
|   \\  /    A nd           | Website:  www.openfoam.com                      |
|    \\/     M anipulation  |                                                 |
\*---------------------------------------------------------------------------*/
FoamFile
{
    version     2.0;
    format      ascii;
    arch        "LSB;label=32;scalar=64";
    class       volVectorField;
    location    "1234";
    object      U;
}
// * * * * * * * * * * * * * * * * * * * * * * * * * * * * * * * * * * * * * //

dimensions      [0 1 -1 0 0 0 0];

internalField   nonuniform List<vector> 
124215
(
(-0.000175416 5.94808e-06 -500)
(-0.000498359 2.26811e-06 -500)
(-0.000755093 -5.96828e-06 -500)
(-0.000930625 -1.57501e-05 -500)
(-0.00102133 -2.4091e-05 -500)
(-0.001038 -2.68423e-05 -500)
(-0.00100788 -2.39787e-05 -500)
(-0.000959929 -1.7032e-05 -500)
(-0.000909382 -9.45212e-06 -500)
(-0.000857764 -2.75804e-06 -500)
(-0.000801045 2.03728e-06 -500)
(-0.000735747 5.37446e-06 -500)
(-0.000660452 7.33808e-06 -500)
(-0.000575635 8.53519e-06 -500)
(-0.000483214 9.11445e-06 -500)
(-0.000386421 9.45592e-06 -500)
(-0.000288671 9.51619e-06 -500)
(-0.000190995 9.69143e-06 -500)
(-9.15958e-05 9.43612e-06 -500)
(-2.0604e-05 9.87349e-06 -500)
(-0.000179096 1.88384e-05 -500)
(-0.000510275 7.02573e-06 -500)
(-0.000773111 -1.60843e-05 -500)
(-0.000948748 -4.26836e-05 -500)
(-0.00103242 -6.38278e-05 -500)
(-0.00103789 -6.95958e-05 -500)
(-0.000998071 -6.01774e-05 -500)
(-0.000945402 -4.1265e-05 -500)
(-0.000895108 -2.07292e-05 -500)
(-0.000846274 -3.14287e-06 -500)
(-0.000792913 9.79747e-06 -500)
(-0.000730446 1.85445e-05 -500)
(-0.000657291 2.3907e-05 -500)
(-0.000573859 2.70043e-05 -500)
(-0.000482293 2.85607e-05 -500)
(-0.000386019 2.92958e-05 -500)
(-0.000288435 2.94951e-05 -500)
(-0.000191075 2.93818e-05 -500)
(-9.14137e-05 2.93533e-05 -500)
(-2.01666e-05 2.93062e-05 -500)
(-0.000187229 3.24188e-05 -500)
(-0.000533281 1.36302e-05 -500)
(-0.000804802 -1.89978e-05 -500)
(-0.000978369 -5.68661e-05 -500)
(-0.00104824 -8.27573e-05 -500)
(-0.00103435 -8.8414e-05 -500)
(-0.000979551 -7.33777e-05 -500)
(-0.000920481 -4.701e-05 -500)
(-0.00087126 -1.8842e-05 -500)
(-0.000827237 5.083e-06 -500)
(-0.000779358 2.29797e-05 -500)
(-0.000721637 3.50439e-05 -500)
(-0.000651992 4.25761e-05 -500)
(-0.000570982 4.68112e-05 -500)
(-0.000480922 4.89032e-05 -500)
(-0.000385486 4.97122e-05 -500)
(-0.000288585 4.97771e-05 -500)
(-0.000191137 4.95184e-05 -500)
(-9.16714e-05 4.89535e-05 -500)
(-2.0651e-05 4.84709e-05 -500)
(-0.000197885 3.90716e-05 -500)
(-0.000561692 1.78505e-05 -500)
(-0.000843607 -1.78032e-05 -500)
(-0.00101251 -5.56013e-05 -500)
(-0.00106397 -7.88334e-05 -500)
(-0.00102851 -8.06822e-05 -500)
(-0.000956667 -6.24415e-05 -500)
(-0.000890867 -3.38033e-05 -500)
(-0.000843015 -4.00603e-06 -500)
(-0.000804453 2.14623e-05 -500)
(-0.000762952 4.06158e-05 -500)
(-0.000710849 5.36811e-05 -500)
(-0.000645524 6.17798e-05 -500)
(-0.000567532 6.62562e-05 -500)
(-0.000479392 6.8288e-05 -500)
(-0.000385145 6.88288e-05 -500)
(-0.000288629 6.85391e-05 -500)
(-0.000191899 6.7752e-05 -500)
(-9.24612e-05 6.68446e-05 -500)
(-2.06493e-05 6.58558e-05 -500)
(-0.00020845 2.40378e-05 -500)
(-0.000590156 9.69196e-06 -500)
(-0.000878254 -1.47936e-05 -500)
(-0.0010394 -3.59396e-05 -500)
(-0.00107332 -4.75683e-05 -500)
(-0.00101796 -4.27622e-05 -500)
(-0.000932672 -2.4828e-05 -500)
(-0.000862045 -3.29196e-07 -500)
(-0.000815994 2.46299e-05 -500)
(-0.000782615 4.61591e-05 -500)
(-0.000747139 6.26214e-05 -500)
(-0.000700473 7.39262e-05 -500)
(-0.000639417 8.08615e-05 -500)
(-0.000564473 8.44711e-05 -500)
(-0.000478349 8.57941e-05 -500)
(-0.000385235 8.57049e-05 -500)
(-0.000289661 8.48267e-05 -500)
(-0.000192831 8.3597e-05 -500)
(-9.35677e-05 8.21726e-05 -500)
(-2.16398e-05 8.09121e-05 -500)
(-0.00021223 1.55893e-06 -500)
(-0.000600523 -1.48524e-06 -500)
(-0.000889239 -1.92779e-06 -500)
(-0.00104528 -1.8635e-06 -500)
(-0.00107079 2.69766e-06 -500)
(-0.00100577 1.2005e-05 -500)
(-0.000914234 2.62136e-05 -500)
(-0.000841409 4.2925e-05 -500)
(-0.000796527 5.97997e-05 -500)
(-0.000766461 7.46868e-05 -500)
(-0.000735185 8.62906e-05 -500)
(-0.000692609 9.42513e-05 -500)
(-0.000634979 9.88946e-05 -500)
(-0.000562599 0.0001009 -500)
(-0.000478158 0.000101045 -500)
(-0.000386112 0.000100043 -500)
(-0.000290737 9.84498e-05 -500)
(-0.000194553 9.65797e-05 -500)
(-9.51462e-05 9.4747e-05 -500)
(-2.19098e-05 9.31667e-05 -500)
(-0.000211494 -1.35048e-05 -500)
(-0.000593643 -5.00772e-07 -500)
(-0.000878632 1.86567e-05 -500)
(-0.00103477 3.81868e-05 -500)
(-0.00105945 5.31275e-05 -500)
(-0.000994442 6.46325e-05 -500)
(-0.000901752 7.45564e-05 -500)
(-0.000828459 8.42891e-05 -500)
(-0.000784232 9.37849e-05 -500)
(-0.000756124 0.000102179 -500)
(-0.000727574 0.000108631 -500)
(-0.000687869 0.00011275 -500)
(-0.000632768 0.000114617 -500)
(-0.000562323 0.000114626 -500)
(-0.000479207 0.000113322 -500)
(-0.000387831 0.000111257 -500)
(-0.000293125 0.000108866 -500)
(-0.000196534 0.000106446 -500)
(-9.69807e-05 0.000104205 -500)
(-2.32201e-05 0.000102399 -500)
(-0.000199226 -1.27613e-05 -500)
(-0.000568361 1.22857e-05 -500)
(-0.000850551 4.4565e-05 -500)
(-0.00101081 7.70425e-05 -500)
(-0.00104435 9.72891e-05 -500)
(-0.000984339 0.000109832 -500)
(-0.000894578 0.000116639 -500)
(-0.00082218 0.000121081 -500)
(-0.000778637 0.000124403 -500)
(-0.000751615 0.000126886 -500)
(-0.000724613 0.000128327 -500)
(-0.000686623 0.000128523 -500)
(-0.000633103 0.000127457 -500)
(-0.000563894 0.000125327 -500)
(-0.000481527 0.000122477 -500)
(-0.000390569 0.000119297 -500)
(-0.000295548 0.000116119 -500)
(-0.000199213 0.000113147 -500)
(-9.91936e-05 0.000110554 -500)
(-2.37161e-05 0.000108596 -500)
(-0.000186447 8.64648e-06 -500)
(-0.000536316 3.18672e-05 -500)
(-0.000813875 7.19238e-05 -500)
(-0.00098205 0.000105676 -500)
(-0.00102666 0.000131276 -500)
(-0.000975092 0.000145917 -500)
(-0.000890503 0.000152303 -500)
(-0.000820696 0.000153146 -500)
(-0.000778427 0.000151173 -500)
(-0.0007522 0.000148104 -500)
(-0.000725937 0.000144655 -500)
(-0.000688739 0.000140946 -500)
(-0.000635964 0.000136937 -500)
(-0.000567303 0.000132664 -500)
(-0.000485237 0.000128285 -500)
(-0.000394189 0.000124036 -500)
(-0.000299275 0.000120131 -500)
(-0.000202099 0.000116697 -500)
(-0.000101532 0.000113897 -500)
(-2.51782e-05 0.000111825 -500)
(-0.000176006 2.95901e-05 -500)
(-0.000505084 5.26753e-05 -500)
(-0.000776742 8.99122e-05 -500)
(-0.00095146 0.000126192 -500)
(-0.00100411 0.000157516 -500)
(-0.000963311 0.000176904 -500)
(-0.000887349 0.000183987 -500)
(-0.000823311 0.000181535 -500)
(-0.000783679 0.000174212 -500)
(-0.000758133 0.000165565 -500)
(-0.000731772 0.00015728 -500)
(-0.000694341 0.000149774 -500)
(-0.000641385 0.000142958 -500)
(-0.000572547 0.00013668 -500)
(-0.000490155 0.000130911 -500)
(-0.000398723 0.000125725 -500)
(-0.000302887 0.000121229 -500)
(-0.000205447 0.000117495 -500)
(-0.000104065 0.000114538 -500)
(-2.57876e-05 0.000112527 -500)
(-0.000163362 4.13039e-05 -500)
(-0.000475994 6.43493e-05 -500)
(-0.000740359 9.80033e-05 -500)
(-0.000914445 0.00014104 -500)
(-0.000975953 0.000179837 -500)
(-0.000948622 0.000205313 -500)
(-0.000885872 0.000212891 -500)
(-0.000830471 0.000206555 -500)
(-0.000794398 0.000193513 -500)
(-0.000769132 0.000179146 -500)
(-0.000741727 0.000166134 -500)
(-0.00070306 0.000155013 -500)
(-0.000649059 0.000145647 -500)
(-0.00057935 0.000137592 -500)
(-0.000496191 0.000130672 -500)
(-0.000403871 0.000124748 -500)
(-0.000307506 0.000119856 -500)
(-0.00020879 0.000115929 -500)
(-0.0001065 0.000113055 -500)
(-2.71897e-05 0.000111103 -500)
(-0.00015296 4.73798e-05 -500)
(-0.000448385 6.47963e-05 -500)
(-0.000700051 0.000100746 -500)
(-0.000869626 0.00014917 -500)
(-0.000939832 0.00019553 -500)
(-0.000930258 0.00022534 -500)
(-0.000886106 0.000232715 -500)
(-0.000842688 0.000223128 -500)
(-0.000811088 0.0002055 -500)
(-0.000785512 0.000186781 -500)
(-0.000755905 0.000170075 -500)
(-0.000714828 0.000156268 -500)
(-0.000658806 0.00014495 -500)
(-0.000587521 0.000135672 -500)
(-0.000502999 0.000127957 -500)
(-0.00040954 0.000121646 -500)
(-0.000311706 0.000116591 -500)
(-0.000212248 0.000112777 -500)
(-0.000108891 0.000110019 -500)
(-2.77398e-05 0.000108333 -500)
(-0.000145945 4.72184e-05 -500)
(-0.000422628 6.31018e-05 -500)
(-0.000655985 9.88238e-05 -500)
(-0.000819662 0.000147757 -500)
(-0.000899783 0.000195502 -500)
(-0.000911436 0.000226071 -500)
(-0.000888084 0.00023375 -500)
(-0.000857686 0.000224064 -500)
(-0.000830744 0.000205686 -500)
(-0.000804557 0.000185917 -500)
(-0.000772241 0.00016798 -500)
(-0.000728185 0.000153182 -500)
(-0.000669654 0.000141068 -500)
(-0.000596344 0.000131357 -500)
(-0.000510218 0.000123411 -500)
(-0.000415236 0.000117126 -500)
(-0.000316374 0.000112243 -500)
(-0.000215363 0.00010866 -500)
(-0.000110944 0.000106246 -500)
(-2.88758e-05 0.000104649 -500)
(-0.000137077 4.43067e-05 -500)
(-0.000396779 6.05713e-05 -500)
(-0.000615396 9.30582e-05 -500)
(-0.000772948 0.000137737 -500)
(-0.000861518 0.000181924 -500)
(-0.00089201 0.000210809 -500)
(-0.000888113 0.00021984 -500)
(-0.000870753 0.000212143 -500)
(-0.000849236 0.00019621 -500)
(-0.000823218 0.000177666 -500)
(-0.00078864 0.000160825 -500)
(-0.00074174 0.000146273 -500)
(-0.000680631 0.000134667 -500)
(-0.000605178 0.000125105 -500)
(-0.000517229 0.000117653 -500)
(-0.000420708 0.000111727 -500)
(-0.000320172 0.00010737 -500)
(-0.000218245 0.000104222 -500)
(-0.000112903 0.000101985 -500)
(-2.93368e-05 0.000100635 -500)
(-0.000129681 4.77605e-05 -500)
(-0.000373877 6.01451e-05 -500)
(-0.000578819 8.73885e-05 -500)
(-0.000730796 0.000124836 -500)
(-0.000826712 0.000161972 -500)
(-0.000873519 0.000187245 -500)
(-0.00088675 0.000196393 -500)
(-0.000881317 0.000191602 -500)
(-0.00086522 0.000179109 -500)
(-0.000839942 0.000163812 -500)
(-0.000803634 0.000149294 -500)
(-0.000754343 0.000136572 -500)
(-0.000690822 0.000126213 -500)
(-0.000613357 0.000117762 -500)
(-0.000523597 0.000111209 -500)
(-0.00042552 0.000106154 -500)
(-0.000323879 0.000102489 -500)
(-0.000220748 9.97293e-05 -500)
(-0.000114531 9.78075e-05 -500)
(-3.02255e-05 9.63883e-05 -500)
(-0.000124692 5.05151e-05 -500)
(-0.000357151 6.05177e-05 -500)
(-0.000550705 8.13608e-05 -500)
(-0.000698365 0.000110794 -500)
(-0.000799109 0.000138943 -500)
(-0.000857588 0.000160106 -500)
(-0.000883756 0.000168128 -500)
(-0.000888037 0.000166642 -500)
(-0.000877026 0.00015734 -500)
(-0.000853032 0.000146387 -500)
(-0.000815879 0.000134432 -500)
(-0.000764821 0.000124613 -500)
(-0.000699442 0.000115724 -500)
(-0.000620182 0.000109131 -500)
(-0.000528837 0.000103612 -500)
(-0.000429429 9.97912e-05 -500)
(-0.000326597 9.67098e-05 -500)
(-0.000222926 9.44155e-05 -500)
(-0.000116244 9.234e-05 -500)
(-3.0756e-05 9.03463e-05 -500)
(-0.000119678 5.39181e-05 -500)
(-0.000343031 6.31187e-05 -500)
(-0.000528543 7.95134e-05 -500)
(-0.000673214 0.000100053 -500)
(-0.000777399 0.00012043 -500)
(-0.000844335 0.000135006 -500)
(-0.000880214 0.000141611 -500)
(-0.000892104 0.000140322 -500)
(-0.000885474 0.000134171 -500)
(-0.000862851 0.000125528 -500)
(-0.000825409 0.00011678 -500)
(-0.000773051 0.000108713 -500)
(-0.000706304 0.000102006 -500)
(-0.000625469 9.65883e-05 -500)
(-0.000532937 9.24974e-05 -500)
(-0.000432422 8.93924e-05 -500)
(-0.000329255 8.68225e-05 -500)
(-0.000225118 8.43644e-05 -500)
(-0.0001186 8.1873e-05 -500)
(-3.22193e-05 7.91605e-05 -500)
(-0.000115492 5.29124e-05 -500)
(-0.000331556 6.01158e-05 -500)
(-0.000513771 7.24332e-05 -500)
(-0.000657449 8.51211e-05 -500)
(-0.000764156 9.84724e-05 -500)
(-0.000836407 0.000106861 -500)
(-0.00087844 0.000111572 -500)
(-0.000895477 0.000109945 -500)
(-0.00089182 0.000106208 -500)
(-0.000870424 9.95638e-05 -500)
(-0.000832695 9.37399e-05 -500)
(-0.000779595 8.74695e-05 -500)
(-0.000711566 8.29431e-05 -500)
(-0.00062969 7.88177e-05 -500)
(-0.000536033 7.61493e-05 -500)
(-0.000435104 7.3644e-05 -500)
(-0.000331625 7.12474e-05 -500)
(-0.000227875 6.85128e-05 -500)
(-0.000121448 6.58653e-05 -500)
(-3.34685e-05 6.47808e-05 -500)
(-0.000112475 1.8611e-05 -500)
(-0.00032351 2.50443e-05 -500)
(-0.000503538 3.43674e-05 -500)
(-0.000647174 4.53904e-05 -500)
(-0.00075566 5.48618e-05 -500)
(-0.000831235 6.29754e-05 -500)
(-0.00087713 6.7275e-05 -500)
(-0.000897468 6.92692e-05 -500)
(-0.000895855 6.83591e-05 -500)
(-0.000875319 6.67969e-05 -500)
(-0.000837503 6.43376e-05 -500)
(-0.000783847 6.24655e-05 -500)
(-0.000714955 6.07408e-05 -500)
(-0.000632263 5.98229e-05 -500)
(-0.00053811 5.90421e-05 -500)
(-0.000437323 5.79602e-05 -500)
(-0.000334386 5.60912e-05 -500)
(-0.0002305 5.394e-05 -500)
(-0.000122332 5.33543e-05 -500)
(-3.33038e-05 5.50435e-05 -500)
(-0.000109058 -5.05355e-06 -500)
(-0.0003158 -1.63701e-06 -500)
(-0.000493425 2.65731e-06 -500)
(-0.000636954 8.47533e-06 -500)
(-0.000746571 1.28775e-05 -500)
(-0.000823994 1.75641e-05 -500)
(-0.000872146 2.01187e-05 -500)
(-0.000894393 2.25483e-05 -500)
(-0.000894292 2.31943e-05 -500)
(-0.000874445 2.41113e-05 -500)
(-0.000837026 2.40677e-05 -500)
(-0.000783192 2.45882e-05 -500)
(-0.000714209 2.47233e-05 -500)
(-0.000631389 2.53349e-05 -500)
(-0.000537895 2.55976e-05 -500)
(-0.000438055 2.55498e-05 -500)
(-0.000335645 2.48665e-05 -500)
(-0.000230612 2.42907e-05 -500)
(-0.000120344 2.47542e-05 -500)
(-3.17793e-05 2.62787e-05 -500)
(-0.000174644 1.14382e-05 -500)
(-0.000497101 4.98196e-06 -500)
(-0.000752276 -3.54994e-06 -500)
(-0.000925569 -1.46093e-05 -500)
(-0.0010156 -2.24002e-05 -500)
(-0.00103367 -2.50874e-05 -500)
(-0.00100705 -2.18462e-05 -500)
(-0.000962661 -1.51399e-05 -500)
(-0.000914775 -7.86892e-06 -500)
(-0.000864579 -1.67871e-06 -500)
(-0.000808335 2.82113e-06 -500)
(-0.00074291 5.83809e-06 -500)
(-0.000667161 7.6679e-06 -500)
(-0.00058165 8.71276e-06 -500)
(-0.000488374 9.24082e-06 -500)
(-0.000390615 9.50983e-06 -500)
(-0.00029176 9.58195e-06 -500)
(-0.000192719 9.66328e-06 -500)
(-9.12792e-05 9.56483e-06 -500)
(-1.97834e-05 9.69862e-06 -500)
(-0.0001811 2.89753e-05 -500)
(-0.000512089 1.36708e-05 -500)
(-0.000771868 -1.07261e-05 -500)
(-0.000944419 -3.91541e-05 -500)
(-0.00102608 -5.88227e-05 -500)
(-0.00103312 -6.39729e-05 -500)
(-0.000997106 -5.40501e-05 -500)
(-0.000948684 -3.58463e-05 -500)
(-0.000901314 -1.64979e-05 -500)
(-0.000853889 -1.89754e-07 -500)
(-0.000800818 1.17715e-05 -500)
(-0.000738064 1.97666e-05 -500)
(-0.000664286 2.46706e-05 -500)
(-0.000580077 2.74344e-05 -500)
(-0.000487577 2.88116e-05 -500)
(-0.000390274 2.94103e-05 -500)
(-0.000291607 2.95488e-05 -500)
(-0.000192736 2.94095e-05 -500)
(-9.12439e-05 2.93003e-05 -500)
(-1.96496e-05 2.92523e-05 -500)
(-0.000189949 4.04418e-05 -500)
(-0.000536802 2.19487e-05 -500)
(-0.000805101 -1.43709e-05 -500)
(-0.000973666 -5.1207e-05 -500)
(-0.00104042 -7.62618e-05 -500)
(-0.0010289 -7.96955e-05 -500)
(-0.000978927 -6.42612e-05 -500)
(-0.000925109 -3.89656e-05 -500)
(-0.000879118 -1.27124e-05 -500)
(-0.000836309 9.39195e-06 -500)
(-0.000788379 2.57717e-05 -500)
(-0.000730011 3.67878e-05 -500)
(-0.000659493 4.35896e-05 -500)
(-0.000577509 4.73736e-05 -500)
(-0.000486398 4.91751e-05 -500)
(-0.000389878 4.9805e-05 -500)
(-0.000291761 4.97743e-05 -500)
(-0.000192967 4.94391e-05 -500)
(-9.14365e-05 4.88962e-05 -500)
(-1.98314e-05 4.83438e-05 -500)
(-0.000199593 4.75238e-05 -500)
(-0.000566901 2.40556e-05 -500)
(-0.000845023 -1.40001e-05 -500)
(-0.00100631 -5.01764e-05 -500)
(-0.00105457 -7.11437e-05 -500)
(-0.00102112 -6.99916e-05 -500)
(-0.000956376 -5.13299e-05 -500)
(-0.000897135 -2.42215e-05 -500)
(-0.000852956 3.24855e-06 -500)
(-0.000815404 2.64659e-05 -500)
(-0.000773422 4.38277e-05 -500)
(-0.000720246 5.55992e-05 -500)
(-0.000653701 6.28332e-05 -500)
(-0.000574492 6.67492e-05 -500)
(-0.000485146 6.84356e-05 -500)
(-0.000389675 6.87673e-05 -500)
(-0.000291973 6.83541e-05 -500)
(-0.000193614 6.75257e-05 -500)
(-9.23392e-05 6.65634e-05 -500)
(-2.02021e-05 6.56085e-05 -500)
(-0.000213417 3.11045e-05 -500)
(-0.000598326 1.33182e-05 -500)
(-0.000879333 -1.06017e-05 -500)
(-0.00103081 -3.12486e-05 -500)
(-0.00106023 -3.83997e-05 -500)
(-0.00100909 -3.13389e-05 -500)
(-0.000933157 -1.34831e-05 -500)
(-0.00087053 9.12071e-06 -500)
(-0.000828431 3.16324e-05 -500)
(-0.00079573 5.09002e-05 -500)
(-0.000759245 6.55703e-05 -500)
(-0.000711006 7.5591e-05 -500)
(-0.000648343 8.16535e-05 -500)
(-0.000571907 8.47022e-05 -500)
(-0.00048438 8.5676e-05 -500)
(-0.000389959 8.53778e-05 -500)
(-0.000293002 8.43898e-05 -500)
(-0.000194758 8.30963e-05 -500)
(-9.33537e-05 8.16856e-05 -500)
(-2.07863e-05 8.04159e-05 -500)
(-0.00021738 3.05881e-06 -500)
(-0.000608608 1.96385e-06 -500)
(-0.00088959 3.41942e-07 -500)
(-0.00103411 3.78046e-06 -500)
(-0.00105466 1.08118e-05 -500)
(-0.000996202 2.17769e-05 -500)
(-0.000915917 3.52363e-05 -500)
(-0.000852019 5.021e-05 -500)
(-0.000811177 6.50724e-05 -500)
(-0.000781466 7.81461e-05 -500)
(-0.000748732 8.82999e-05 -500)
(-0.000704162 9.51954e-05 -500)
(-0.000644589 9.91034e-05 -500)
(-0.000570469 0.000100627 -500)
(-0.00048447 0.000100472 -500)
(-0.000390961 9.92963e-05 -500)
(-0.000294254 9.76104e-05 -500)
(-0.000196318 9.57174e-05 -500)
(-9.50196e-05 9.38763e-05 -500)
(-2.14717e-05 9.23241e-05 -500)
(-0.000214512 -9.48028e-06 -500)
(-0.000601043 7.78804e-07 -500)
(-0.000877517 2.15524e-05 -500)
(-0.00102034 4.24946e-05 -500)
(-0.00104224 5.87984e-05 -500)
(-0.000984662 7.00876e-05 -500)
(-0.000904724 7.89797e-05 -500)
(-0.000840694 8.75403e-05 -500)
(-0.000800495 9.59494e-05 -500)
(-0.000772502 0.000103383 -500)
(-0.000742196 0.000109033 -500)
(-0.000700202 0.000112528 -500)
(-0.000642911 0.00011394 -500)
(-0.000570538 0.000113643 -500)
(-0.000485711 0.000112148 -500)
(-0.000392821 0.000109975 -500)
(-0.000296581 0.000107542 -500)
(-0.000198492 0.000105116 -500)
(-9.6747e-05 0.000102903 -500)
(-2.23385e-05 0.000101138 -500)
(-0.000207121 -9.07554e-06 -500)
(-0.000577575 1.22171e-05 -500)
(-0.000847875 4.7953e-05 -500)
(-0.000996862 7.80981e-05 -500)
(-0.00102706 9.86861e-05 -500)
(-0.000976021 0.000109255 -500)
(-0.000898464 0.000115249 -500)
(-0.00083505 0.000119439 -500)
(-0.000795334 0.000122826 -500)
(-0.000768383 0.00012536 -500)
(-0.000739587 0.000126767 -500)
(-0.000699255 0.000126869 -500)
(-0.000643474 0.000125697 -500)
(-0.000572262 0.000123481 -500)
(-0.000488138 0.000120579 -500)
(-0.000395567 0.000117383 -500)
(-0.000299113 0.000114217 -500)
(-0.000200957 0.000111283 -500)
(-9.8998e-05 0.000108745 -500)
(-2.32366e-05 0.000106821 -500)
(-0.000193219 2.54985e-06 -500)
(-0.000544014 3.24597e-05 -500)
(-0.000811636 7.00789e-05 -500)
(-0.000969606 0.000104637 -500)
(-0.00101108 0.000127042 -500)
(-0.000968099 0.000139773 -500)
(-0.00089454 0.000145451 -500)
(-0.000833117 0.000146899 -500)
(-0.000794574 0.000145959 -500)
(-0.000768561 0.000143845 -500)
(-0.000740687 0.000141074 -500)
(-0.000701273 0.000137788 -500)
(-0.000646299 0.000134027 -500)
(-0.000575655 0.000129903 -500)
(-0.00049181 0.000125625 -500)
(-0.000399184 0.000121459 -500)
(-0.000302681 0.000117632 -500)
(-0.000203964 0.000114276 -500)
(-0.000101209 0.00011154 -500)
(-2.42625e-05 0.000109553 -500)
(-0.000177211 2.2229e-05 -500)
(-0.000510046 4.92838e-05 -500)
(-0.000775697 8.53797e-05 -500)
(-0.000939899 0.000121615 -500)
(-0.000991929 0.000148945 -500)
(-0.000957612 0.000166257 -500)
(-0.000891338 0.000172885 -500)
(-0.000834542 0.00017158 -500)
(-0.000798388 0.00016597 -500)
(-0.000773267 0.000158934 -500)
(-0.000745644 0.00015188 -500)
(-0.000706302 0.000145222 -500)
(-0.000651359 0.000138958 -500)
(-0.000580664 0.000133042 -500)
(-0.000496582 0.000127517 -500)
(-0.00040356 0.00012251 -500)
(-0.000306295 0.000118152 -500)
(-0.000207049 0.000114532 -500)
(-0.000103722 0.000111692 -500)
(-2.52239e-05 0.00010973 -500)
(-0.000166164 3.53119e-05 -500)
(-0.000480864 5.57472e-05 -500)
(-0.000739305 9.30261e-05 -500)
(-0.000906041 0.000133272 -500)
(-0.000966439 0.0001698 -500)
(-0.000944159 0.000192741 -500)
(-0.000889217 0.00019994 -500)
(-0.000840032 0.000194741 -500)
(-0.00080722 0.000183531 -500)
(-0.000782652 0.000170984 -500)
(-0.000754399 0.00015944 -500)
(-0.000714194 0.0001494 -500)
(-0.000658479 0.000140773 -500)
(-0.000587097 0.00013323 -500)
(-0.000502342 0.000126659 -500)
(-0.000408549 0.000120989 -500)
(-0.000310659 0.000116284 -500)
(-0.000210424 0.000112515 -500)
(-0.000106011 0.000109738 -500)
(-2.62245e-05 0.000107896 -500)
(-0.000156775 3.48494e-05 -500)
(-0.000452332 5.53935e-05 -500)
(-0.000698172 9.3683e-05 -500)
(-0.000863126 0.000141036 -500)
(-0.00093246 0.000184974 -500)
(-0.000927472 0.000212378 -500)
(-0.000889338 0.00021919 -500)
(-0.000850951 0.00021051 -500)
(-0.000822146 0.000194623 -500)
(-0.000797358 0.000177691 -500)
(-0.000767228 0.000162555 -500)
(-0.00072497 0.000149912 -500)
(-0.000667528 0.000139469 -500)
(-0.000594777 0.00013078 -500)
(-0.000508823 0.000123505 -500)
(-0.000413936 0.000117489 -500)
(-0.00031477 0.000112671 -500)
(-0.000213594 0.000109014 -500)
(-0.00010834 0.000106415 -500)
(-2.70663e-05 0.000104789 -500)
(-0.00014562 3.41504e-05 -500)
(-0.00042203 5.35452e-05 -500)
(-0.000653662 9.02081e-05 -500)
(-0.00081475 0.000138994 -500)
(-0.000895098 0.000184398 -500)
(-0.000909944 0.000213249 -500)
(-0.000891085 0.000220514 -500)
(-0.000864598 0.000211628 -500)
(-0.000840039 0.000194792 -500)
(-0.00081472 0.000176638 -500)
(-0.000782178 0.000160192 -500)
(-0.00073728 0.000146526 -500)
(-0.000677611 0.000135309 -500)
(-0.000603061 0.000126209 -500)
(-0.000515632 0.000118741 -500)
(-0.000419382 0.000112775 -500)
(-0.000319134 0.000108143 -500)
(-0.00021668 0.00010475 -500)
(-0.000110236 0.000102458 -500)
(-2.78507e-05 0.000100967 -500)
(-0.000137381 3.4516e-05 -500)
(-0.000396274 5.02628e-05 -500)
(-0.000612724 8.37469e-05 -500)
(-0.000768936 0.000128254 -500)
(-0.000858204 0.000171032 -500)
(-0.000891356 0.000198931 -500)
(-0.000890959 0.000207531 -500)
(-0.000876672 0.000200662 -500)
(-0.000857135 0.000185814 -500)
(-0.000831959 0.000168821 -500)
(-0.00079734 0.000153137 -500)
(-0.000749852 0.000139779 -500)
(-0.000687846 0.000128892 -500)
(-0.000611345 0.000120042 -500)
(-0.000522257 0.000112977 -500)
(-0.000424535 0.000107437 -500)
(-0.000322795 0.000103295 -500)
(-0.000219279 0.000100347 -500)
(-0.000112123 9.82543e-05 -500)
(-2.85574e-05 9.69339e-05 -500)
(-0.000129873 3.5133e-05 -500)
(-0.000372799 4.92727e-05 -500)
(-0.000575671 7.75067e-05 -500)
(-0.000727464 0.000115046 -500)
(-0.00082442 0.000151506 -500)
(-0.000873445 0.000176231 -500)
(-0.000889353 0.000185335 -500)
(-0.000886315 0.000181225 -500)
(-0.000871881 0.000169748 -500)
(-0.000847397 0.000155679 -500)
(-0.00081122 0.000142237 -500)
(-0.000761525 0.000130495 -500)
(-0.000697348 0.000120851 -500)
(-0.000618976 0.000113008 -500)
(-0.000528238 0.000106857 -500)
(-0.000429063 0.000102146 -500)
(-0.000326224 9.87039e-05 -500)
(-0.000221722 9.61464e-05 -500)
(-0.00011365 9.42976e-05 -500)
(-2.91711e-05 9.30023e-05 -500)
(-0.000123241 3.79254e-05 -500)
(-0.0003539 4.98623e-05 -500)
(-0.000546951 7.19585e-05 -500)
(-0.000694937 0.000101287 -500)
(-0.000797019 0.000129768 -500)
(-0.000857526 0.00015032 -500)
(-0.000885965 0.000158999 -500)
(-0.000892259 0.000157625 -500)
(-0.000882682 0.000149629 -500)
(-0.000859469 0.000139221 -500)
(-0.000822523 0.000128563 -500)
(-0.000771238 0.000119201 -500)
(-0.000705333 0.000111248 -500)
(-0.000625339 0.000104925 -500)
(-0.000533119 9.99668e-05 -500)
(-0.000432688 9.6314e-05 -500)
(-0.000328794 9.35353e-05 -500)
(-0.000223685 9.13297e-05 -500)
(-0.000115268 8.94172e-05 -500)
(-2.98527e-05 8.74169e-05 -500)
(-0.000117936 4.63865e-05 -500)
(-0.000338766 5.52639e-05 -500)
(-0.000524247 7.18262e-05 -500)
(-0.000669654 9.25691e-05 -500)
(-0.000775387 0.000112765 -500)
(-0.000844215 0.000127445 -500)
(-0.000882048 0.000134135 -500)
(-0.000895684 0.000133427 -500)
(-0.000890284 0.00012784 -500)
(-0.000868464 0.000120019 -500)
(-0.000831241 0.000111906 -500)
(-0.00077884 0.000104518 -500)
(-0.000711623 9.82818e-05 -500)
(-0.000630257 9.32908e-05 -500)
(-0.000536849 8.95039e-05 -500)
(-0.000435495 8.66416e-05 -500)
(-0.000331208 8.42401e-05 -500)
(-0.00022584 8.19088e-05 -500)
(-0.000117562 7.94674e-05 -500)
(-3.11713e-05 7.6653e-05 -500)
(-0.000114364 4.87095e-05 -500)
(-0.000328461 5.57601e-05 -500)
(-0.000509646 6.72432e-05 -500)
(-0.000653998 8.03793e-05 -500)
(-0.000762143 9.29499e-05 -500)
(-0.000836156 0.000101962 -500)
(-0.000879983 0.000106157 -500)
(-0.000898553 0.000105456 -500)
(-0.00089609 0.000101573 -500)
(-0.000875404 9.59512e-05 -500)
(-0.000838025 9.01309e-05 -500)
(-0.000784862 8.46982e-05 -500)
(-0.00071656 8.0184e-05 -500)
(-0.000634117 7.66053e-05 -500)
(-0.000539769 7.39714e-05 -500)
(-0.000437952 7.17643e-05 -500)
(-0.000333527 6.94039e-05 -500)
(-0.000228458 6.67193e-05 -500)
(-0.000120523 6.39811e-05 -500)
(-3.2667e-05 6.29627e-05 -500)
(-0.000110886 1.75199e-05 -500)
(-0.000320232 2.3713e-05 -500)
(-0.000499627 3.29688e-05 -500)
(-0.000643948 4.32176e-05 -500)
(-0.000753805 5.27273e-05 -500)
(-0.000831007 6.03366e-05 -500)
(-0.000878555 6.49727e-05 -500)
(-0.000900269 6.68384e-05 -500)
(-0.000899789 6.64818e-05 -500)
(-0.000879906 6.50209e-05 -500)
(-0.000842494 6.31033e-05 -500)
(-0.000788787 6.13815e-05 -500)
(-0.000719716 6.00355e-05 -500)
(-0.00063647 5.92574e-05 -500)
(-0.00054169 5.86966e-05 -500)
(-0.000440062 5.77032e-05 -500)
(-0.000336253 5.58336e-05 -500)
(-0.000231262 5.36447e-05 -500)
(-0.000121319 5.3086e-05 -500)
(-3.21897e-05 5.51886e-05 -500)
(-0.00010817 -4.15581e-06 -500)
(-0.000313012 -1.44029e-06 -500)
(-0.000490141 3.06481e-06 -500)
(-0.00063424 8.04606e-06 -500)
(-0.000745024 1.27727e-05 -500)
(-0.000823911 1.68271e-05 -500)
(-0.000873481 1.98689e-05 -500)
(-0.000897044 2.19005e-05 -500)
(-0.000897907 2.30932e-05 -500)
(-0.000878783 2.37822e-05 -500)
(-0.000841664 2.42164e-05 -500)
(-0.00078793 2.46116e-05 -500)
(-0.000718684 2.5074e-05 -500)
(-0.000635456 2.56434e-05 -500)
(-0.000541323 2.60875e-05 -500)
(-0.000440815 2.60105e-05 -500)
(-0.000337585 2.53351e-05 -500)
(-0.000231205 2.46781e-05 -500)
(-0.000118979 2.53923e-05 -500)
(-3.05644e-05 2.70176e-05 -500)
(-0.000176082 1.30962e-05 -500)
(-0.000496882 9.25773e-06 -500)
(-0.000748173 -1.13217e-06 -500)
(-0.000918421 -1.15399e-05 -500)
(-0.00100703 -1.99337e-05 -500)
(-0.00102764 -2.2114e-05 -500)
(-0.00100545 -1.89425e-05 -500)
(-0.000966164 -1.26083e-05 -500)
(-0.00092232 -5.89105e-06 -500)
(-0.000874711 -2.79005e-07 -500)
(-0.000819781 3.76094e-06 -500)
(-0.000754753 6.41694e-06 -500)
(-0.000678761 8.01245e-06 -500)
(-0.000592534 8.88979e-06 -500)
(-0.000498158 9.32125e-06 -500)
(-0.00039896 9.5192e-06 -500)
(-0.000298245 9.55923e-06 -500)
(-0.000196763 9.58479e-06 -500)
(-9.19824e-05 9.53453e-06 -500)
(-1.91501e-05 9.63556e-06 -500)
(-0.000179921 3.79337e-05 -500)
(-0.000511111 2.36349e-05 -500)
(-0.00076897 -3.69059e-06 -500)
(-0.000937222 -3.16974e-05 -500)
(-0.0010176 -5.1705e-05 -500)
(-0.00102665 -5.56675e-05 -500)
(-0.000995941 -4.58987e-05 -500)
(-0.000953113 -2.87488e-05 -500)
(-0.000909991 -1.09846e-05 -500)
(-0.000865059 3.74605e-06 -500)
(-0.000813085 1.44059e-05 -500)
(-0.000750502 2.14308e-05 -500)
(-0.000676288 2.56708e-05 -500)
(-0.000591225 2.79913e-05 -500)
(-0.000497529 2.90931e-05 -500)
(-0.000398722 2.95143e-05 -500)
(-0.00029818 2.95485e-05 -500)
(-0.000196788 2.93513e-05 -500)
(-9.19317e-05 2.92332e-05 -500)
(-1.90491e-05 2.92215e-05 -500)
(-0.000190381 5.74119e-05 -500)
(-0.000538507 3.2979e-05 -500)
(-0.000803505 -4.02264e-06 -500)
(-0.000966435 -4.26564e-05 -500)
(-0.001031 -6.54088e-05 -500)
(-0.00102183 -6.75547e-05 -500)
(-0.000978528 -5.20861e-05 -500)
(-0.00093125 -2.83977e-05 -500)
(-0.000889826 -4.49992e-06 -500)
(-0.000849321 1.52662e-05 -500)
(-0.000802096 2.97017e-05 -500)
(-0.000743488 3.92826e-05 -500)
(-0.0006722 4.50844e-05 -500)
(-0.000589111 4.8214e-05 -500)
(-0.000496635 4.95992e-05 -500)
(-0.000398505 4.99727e-05 -500)
(-0.000298408 4.97941e-05 -500)
(-0.000197078 4.93726e-05 -500)
(-9.21122e-05 4.88228e-05 -500)
(-1.91618e-05 4.82825e-05 -500)
(-0.000204354 6.0712e-05 -500)
(-0.000572545 3.48978e-05 -500)
(-0.000844606 -4.75541e-06 -500)
(-0.000998608 -4.08072e-05 -500)
(-0.0010425 -5.85168e-05 -500)
(-0.00101332 -5.5511e-05 -500)
(-0.000956784 -3.68897e-05 -500)
(-0.000905526 -1.18053e-05 -500)
(-0.000866327 1.28191e-05 -500)
(-0.000830857 3.32302e-05 -500)
(-0.000789069 4.82777e-05 -500)
(-0.000735119 5.83242e-05 -500)
(-0.000667357 6.43613e-05 -500)
(-0.00058671 6.74865e-05 -500)
(-0.00049577 6.86745e-05 -500)
(-0.000398527 6.87047e-05 -500)
(-0.00029878 6.81214e-05 -500)
(-0.000197759 6.72257e-05 -500)
(-9.30218e-05 6.62563e-05 -500)
(-1.95893e-05 6.53417e-05 -500)
(-0.000216195 4.07323e-05 -500)
(-0.000603974 2.22407e-05 -500)
(-0.00087921 -3.77265e-06 -500)
(-0.0010202 -2.13729e-05 -500)
(-0.0010457 -2.59115e-05 -500)
(-0.0010002 -1.66268e-05 -500)
(-0.000934823 7.64236e-07 -500)
(-0.000881541 2.11783e-05 -500)
(-0.00084479 4.07773e-05 -500)
(-0.000813862 5.72414e-05 -500)
(-0.000777002 6.95925e-05 -500)
(-0.000727405 7.78783e-05 -500)
(-0.000663038 8.27257e-05 -500)
(-0.000584798 8.49704e-05 -500)
(-0.000495417 8.54375e-05 -500)
(-0.000399058 8.48382e-05 -500)
(-0.000299887 8.36899e-05 -500)
(-0.000198943 8.23303e-05 -500)
(-9.39962e-05 8.09352e-05 -500)
(-2.00765e-05 7.97138e-05 -500)
(-0.000222845 1.34229e-05 -500)
(-0.00061705 7.33517e-06 -500)
(-0.000888219 6.9502e-06 -500)
(-0.00102075 1.17671e-05 -500)
(-0.00103775 2.18601e-05 -500)
(-0.000986649 3.38195e-05 -500)
(-0.000918979 4.65248e-05 -500)
(-0.000865513 5.94757e-05 -500)
(-0.000830264 7.19001e-05 -500)
(-0.000802042 8.26473e-05 -500)
(-0.000768432 9.08648e-05 -500)
(-0.000721986 9.62865e-05 -500)
(-0.000660264 9.91496e-05 -500)