/*--------------------------------*- C++ -*----------------------------------*\
| =========                 |                                                 |
| \\      /  F ield         | OpenFOAM: The Open Source CFD Toolbox           |
|  \\    /   O peration     | Version:  2412                                  |
|   \\  /    A nd           | Website:  www.openfoam.com                      |
|    \\/     M anipulation  |                                                 |
\*---------------------------------------------------------------------------*/
FoamFile
{
    version     2.0;
    format      ascii;
    arch        "LSB;label=32;scalar=64";
    class       volVectorField;
    location    "0.007";
    object      U;
}
// * * * * * * * * * * * * * * * * * * * * * * * * * * * * * * * * * * * * * //

dimensions      [0 1 -1 0 0 0 0];

internalField   nonuniform List<vector> 
124215
(
(6.86995e-12 6.86995e-12 -500)
(1.36387e-13 6.87701e-12 -500)
(4.95856e-22 6.87701e-12 -500)
(1.31811e-24 6.87701e-12 -500)
(7.22621e-30 6.87701e-12 -500)
(-1.8807e-29 6.87701e-12 -500)
(6.15783e-17 6.87701e-12 -500)
(-3.6755e-14 6.85619e-12 -500)
(-4.62295e-13 6.34653e-12 -500)
(-8.90343e-13 5.04694e-12 -500)
(3.75604e-13 4.90318e-12 -500)
(1.16098e-12 6.15957e-12 -500)
(1.14229e-20 6.87701e-12 -500)
(2.32388e-24 6.87701e-12 -500)
(5.36479e-29 6.87701e-12 -500)
(-7.16684e-30 6.87701e-12 -500)
(-1.3181e-24 6.87701e-12 -500)
(-4.95856e-22 6.87701e-12 -500)
(-7.59121e-15 6.87701e-12 -500)
(-6.99905e-12 6.86995e-12 -500)
(6.87701e-12 1.36805e-13 -500)
(1.29233e-13 1.29233e-13 -500)
(1.20515e-23 1.29233e-13 -500)
(3.28921e-25 1.29233e-13 -500)
(4.27251e-32 1.29233e-13 -500)
(-3.36128e-29 1.29233e-13 -500)
(-2.47493e-24 1.29233e-13 -500)
(-2.32041e-15 1.29174e-13 -500)
(-6.86074e-13 5.07391e-13 -500)
(-3.32482e-13 7.02664e-13 -500)
(5.08225e-13 7.96537e-13 -500)
(4.24972e-13 6.19493e-13 -500)
(3.79729e-23 1.29233e-13 -500)
(1.48017e-24 1.29233e-13 -500)
(2.23468e-31 1.29233e-13 -500)
(-2.88947e-32 1.29233e-13 -500)
(-3.28921e-25 1.29233e-13 -500)
(-1.20518e-23 1.29233e-13 -500)
(1.17511e-15 1.29233e-13 -500)
(-7.00785e-12 1.36805e-13 -500)
(6.87701e-12 9.40262e-22 -500)
(1.29233e-13 3.14415e-22 -500)
(3.95709e-21 2.88382e-20 -500)
(3.29309e-25 2.88382e-20 -500)
(1.56204e-29 2.88382e-20 -500)
(-3.31036e-29 2.88382e-20 -500)
(-9.74915e-25 2.88382e-20 -500)
(-2.35147e-15 2.88845e-20 -500)
(-2.9222e-13 -1.31587e-15 -500)
(-6.28787e-13 -3.57299e-13 -500)
(4.28374e-13 1.56545e-13 -500)
(9.59212e-13 6.39233e-14 -500)
(5.03245e-22 2.88385e-20 -500)
(5.12821e-25 2.88382e-20 -500)
(7.24265e-30 2.88382e-20 -500)
(-1.56034e-29 2.88382e-20 -500)
(-3.29116e-25 2.88382e-20 -500)
(-3.95709e-21 2.88382e-20 -500)
(1.17511e-15 3.14417e-22 -500)
(-7.00785e-12 9.40263e-22 -500)
(6.87701e-12 2.35884e-23 -500)
(1.29233e-13 1.15526e-23 -500)
(3.95709e-21 1.15685e-23 -500)
(3.29309e-25 1.15685e-23 -500)
(1.56183e-29 1.15685e-23 -500)
(-1.10517e-29 1.15685e-23 -500)
(-1.07202e-24 1.15686e-23 -500)
(-4.87884e-14 -1.39415e-14 -500)
(-9.9185e-13 -2.48574e-13 -500)
(-1.459e-13 -9.65126e-13 -500)
(9.68152e-13 -1.78121e-13 -500)
(4.63473e-14 -7.80824e-15 -500)
(-5.38992e-16 -6.14941e-25 -500)
(2.5496e-24 1.15685e-23 -500)
(7.58205e-30 1.15685e-23 -500)
(-1.55965e-29 1.15685e-23 -500)
(-3.29116e-25 1.15685e-23 -500)
(-3.95709e-21 1.15685e-23 -500)
(1.17511e-15 1.15526e-23 -500)
(-7.00785e-12 2.35884e-23 -500)
(6.87701e-12 5.15346e-29 -500)
(1.29233e-13 1.06625e-29 -500)
(3.95709e-21 1.07195e-27 -500)
(3.29309e-25 1.07117e-27 -500)
(1.56033e-29 1.07191e-27 -500)
(-2.71419e-29 1.07135e-27 -500)
(2.55955e-15 4.42151e-28 -500)
(-1.23784e-13 -1.1595e-14 -500)
(-1.72852e-12 -1.34237e-13 -500)
(-8.06779e-13 -3.6011e-13 -500)
(1.47491e-12 -5.9809e-13 -500)
(1.07588e-12 -8.23801e-14 -500)
(-1.93387e-17 2.78523e-23 -500)
(1.31286e-24 1.0148e-27 -500)
(2.11133e-31 1.07073e-27 -500)
(-1.56007e-29 1.07099e-27 -500)
(-3.29116e-25 1.07202e-27 -500)
(-3.95709e-21 1.07124e-27 -500)
(1.17511e-15 9.38183e-30 -500)
(-7.00785e-12 5.17601e-29 -500)
(6.87701e-12 -1.61057e-27 -500)
(1.29233e-13 8.89056e-28 -500)
(3.95709e-21 -7.2265e-28 -500)
(3.29309e-25 -1.64592e-27 -500)
(1.56144e-29 -1.2854e-27 -500)
(-4.20544e-29 -9.0564e-28 -500)
(-3.16938e-24 -5.81139e-28 -500)
(-5.32908e-14 1.15493e-22 -500)
(-1.68124e-12 5.41436e-14 -500)
(-7.0027e-13 2.78658e-13 -500)
(1.3531e-12 -9.8797e-14 -500)
(9.07821e-13 -5.47706e-14 -500)
(1.44143e-14 -5.83401e-23 -500)
(2.56343e-24 -2.57756e-27 -500)
(1.85319e-29 -1.75505e-27 -500)
(-1.55907e-29 -1.87526e-27 -500)
(-3.29116e-25 -2.11872e-28 -500)
(-3.95709e-21 -1.13302e-27 -500)
(1.17511e-15 -4.74169e-28 -500)
(-7.00785e-12 -1.60467e-27 -500)
(6.87701e-12 1.71214e-18 -500)
(1.29233e-13 2.4357e-24 -500)
(3.95709e-21 -3.58425e-23 -500)
(3.29287e-25 -6.52979e-23 -500)
(4.28828e-29 1.39326e-15 -500)
(-3.90066e-29 5.22967e-16 -500)
(6.73318e-16 -1.94882e-23 -500)
(-6.53751e-14 3.65879e-24 -500)
(-1.45335e-12 4.63187e-14 -500)
(-9.21052e-13 6.96938e-14 -500)
(1.16535e-12 -5.90555e-13 -500)
(1.07437e-12 -9.6799e-14 -500)
(1.51476e-15 -1.2774e-23 -500)
(3.03761e-24 -1.52268e-22 -500)
(3.71015e-29 -8.86932e-23 -500)
(-2.3904e-30 -9.27914e-23 -500)
(-3.29116e-25 2.42459e-15 -500)
(-3.95709e-21 -5.88446e-23 -500)
(1.17511e-15 -6.18504e-23 -500)
(-7.00785e-12 -8.39877e-23 -500)
(6.86264e-12 -3.26167e-14 -500)
(1.29204e-13 5.6114e-16 -500)
(6.47006e-21 5.41871e-15 -500)
(-3.1961e-15 -2.7529e-14 -500)
(-1.25201e-15 -8.49711e-14 -500)
(-3.41043e-15 -6.07261e-14 -500)
(3.79342e-19 2.30571e-15 -500)
(-7.15009e-15 2.16767e-15 -500)
(-1.50669e-12 5.24914e-14 -500)
(-1.30376e-12 2.38222e-13 -500)
(1.07056e-12 -2.03318e-13 -500)
(1.76751e-12 -3.61614e-14 -500)
(-3.92344e-18 2.29238e-15 -500)
(-1.10356e-16 -3.93157e-15 -500)
(4.55575e-21 1.51872e-15 -500)
(-1.71359e-15 -5.51145e-14 -500)
(1.1771e-14 -1.45334e-13 -500)
(1.14573e-14 -2.71322e-14 -500)
(5.65014e-16 -6.97207e-16 -500)
(-7.00555e-12 -4.01096e-14 -500)
(6.39542e-12 -5.52639e-13 -500)
(5.03281e-13 -3.60098e-13 -500)
(-9.05407e-14 -2.13668e-13 -500)
(-1.35103e-13 -1.13877e-12 -500)
(-2.48406e-15 -1.23664e-12 -500)
(-4.2639e-14 -9.15851e-13 -500)
(3.41251e-14 -1.49417e-12 -500)
(4.96234e-15 -4.47892e-13 -500)
(-1.01302e-12 -1.31738e-12 -500)
(-9.67735e-13 2.80103e-14 -500)
(7.6903e-13 6.9312e-13 -500)
(1.29245e-12 -1.15852e-12 -500)
(-3.5937e-14 -3.2873e-13 -500)
(-2.23361e-13 -1.47916e-12 -500)
(-1.30738e-14 -1.54996e-12 -500)
(-7.42301e-14 -1.87025e-12 -500)
(2.11035e-13 -2.33347e-12 -500)
(2.20521e-13 -6.25648e-13 -500)
(-1.71689e-13 -6.2063e-13 -500)
(-6.69548e-12 -1.71833e-12 -500)
(5.05463e-12 -1.32268e-12 -500)
(9.89222e-13 -9.49673e-13 -500)
(-5.77535e-13 -3.88866e-13 -500)
(-8.48363e-13 -5.55789e-13 -500)
(7.91124e-14 -1.52391e-13 -500)
(-6.77816e-14 -1.64778e-12 -500)
(3.06403e-13 -6.6407e-13 -500)
(-1.64045e-13 -4.9039e-13 -500)
(-6.21094e-13 -1.816e-13 -500)
(8.41288e-13 3.90314e-13 -500)
(-1.07331e-13 6.80416e-14 -500)
(9.2774e-14 -1.07157e-12 -500)
(6.34139e-14 -8.51842e-13 -500)
(-9.57623e-13 -6.97943e-13 -500)
(-3.70832e-13 -1.18097e-13 -500)
(-5.63164e-13 -6.47078e-13 -500)
(9.17758e-13 -1.12576e-12 -500)
(1.20477e-12 -2.93377e-13 -500)
(-9.97258e-13 -8.64065e-13 -500)
(-4.51166e-12 -9.83655e-13 -500)
(4.11803e-12 4.21959e-13 -500)
(1.48769e-12 3.88293e-13 -500)
(4.66294e-13 2.875e-13 -500)
(1.29197e-13 9.85148e-13 -500)
(-1.11163e-12 1.01738e-12 -500)
(-3.46657e-13 9.64449e-13 -500)
(1.06477e-12 1.17707e-12 -500)
(1.46426e-13 5.58296e-13 -500)
(-1.69638e-13 1.06475e-12 -500)
(-7.20536e-13 -1.67853e-13 -500)
(-5.12191e-13 -3.09779e-13 -500)
(3.7108e-13 1.0593e-12 -500)
(4.97359e-13 5.47344e-13 -500)
(7.39237e-13 1.13576e-12 -500)
(-1.35484e-13 1.37518e-12 -500)
(-9.2865e-13 1.58896e-12 -500)
(4.45256e-13 1.92383e-12 -500)
(2.57484e-13 7.84244e-13 -500)
(-1.38819e-12 6.53743e-13 -500)
(-4.43782e-12 1.33154e-12 -500)
(6.07313e-12 1.74877e-12 -500)
(6.7019e-13 1.1088e-12 -500)
(4.82912e-14 2.71448e-13 -500)
(1.45277e-14 5.29321e-13 -500)
(-1.9885e-13 1.06325e-13 -500)
(-5.02272e-14 2.15991e-12 -500)
(1.65341e-13 5.06272e-13 -500)
(1.51591e-14 5.66927e-13 -500)
(-1.39786e-12 3.29315e-13 -500)
(-9.82349e-13 8.10695e-15 -500)
(1.08476e-12 4.95573e-13 -500)
(9.64717e-13 1.29609e-12 -500)
(7.75737e-14 9.01199e-13 -500)
(1.4159e-13 9.72661e-13 -500)
(5.30757e-14 -1.25434e-13 -500)
(-2.71678e-13 9.20421e-13 -500)
(2.79829e-14 1.40231e-12 -500)
(8.11021e-14 2.76812e-13 -500)
(-1.66214e-13 1.00675e-12 -500)
(-6.60758e-12 1.44244e-12 -500)
(6.87701e-12 6.21863e-20 -500)
(1.29233e-13 1.31226e-15 -500)
(3.95523e-21 3.26789e-16 -500)
(2.3395e-24 5.47929e-20 -500)
(-1.52435e-15 6.33062e-15 -500)
(7.03343e-25 4.20395e-20 -500)
(-3.19231e-24 3.41148e-15 -500)
(1.17263e-15 8.3099e-22 -500)
(-4.99919e-13 -6.25216e-15 -500)
(-6.78195e-13 4.45919e-14 -500)
(6.54746e-13 2.80427e-13 -500)
(6.96866e-13 7.20559e-14 -500)
(1.60085e-14 7.39762e-21 -500)
(2.03412e-16 1.62564e-14 -500)
(-1.207e-24 -7.58372e-15 -500)
(7.71066e-25 -4.62013e-16 -500)
(2.03527e-24 2.52713e-20 -500)
(-3.95734e-21 3.86066e-15 -500)
(1.17511e-15 1.31227e-15 -500)
(-7.00785e-12 -2.33538e-16 -500)
(6.87701e-12 1.11123e-22 -500)
(1.29233e-13 2.5166e-23 -500)
(3.95709e-21 7.93332e-23 -500)
(3.29358e-25 7.48457e-23 -500)
(3.60549e-29 2.62814e-23 -500)
(-3.3835e-29 2.70371e-23 -500)
(-6.191e-25 2.65406e-23 -500)
(3.18412e-15 4.82712e-23 -500)
(-1.67978e-12 -1.02127e-13 -500)
(-7.33917e-13 -4.47496e-13 -500)
(1.40719e-12 2.93807e-13 -500)
(7.84895e-13 5.20818e-14 -500)
(1.39964e-14 5.70789e-23 -500)
(1.64789e-24 4.96309e-23 -500)
(-1.09419e-29 3.42855e-23 -500)
(-1.54525e-29 5.71546e-23 -500)
(-3.29113e-25 4.57251e-23 -500)
(-3.95709e-21 2.92011e-23 -500)
(1.17511e-15 2.13058e-23 -500)
(-7.00785e-12 1.01294e-22 -500)
(6.87701e-12 2.20646e-27 -500)
(1.29233e-13 1.19744e-28 -500)
(3.95709e-21 1.59049e-27 -500)
(3.29309e-25 1.87681e-27 -500)
(1.56242e-29 2.34443e-29 -500)
(-4.92326e-29 1.5313e-27 -500)
(-2.77547e-24 -3.22031e-28 -500)
(-5.6057e-14 5.79915e-15 -500)
(-1.28222e-12 1.21984e-13 -500)
(-2.94756e-13 6.28096e-13 -500)
(1.03762e-12 2.69037e-13 -500)
(2.9281e-13 9.2647e-14 -500)
(2.15331e-15 1.9864e-23 -500)
(2.26692e-24 2.83063e-28 -500)
(6.46146e-30 -2.49454e-28 -500)
(-1.55944e-29 7.18521e-28 -500)
(-3.29116e-25 3.12747e-28 -500)
(-3.95709e-21 1.29316e-27 -500)
(1.17511e-15 4.48047e-28 -500)
(-7.00785e-12 1.37816e-27 -500)
(6.87701e-12 -4.93087e-29 -500)
(1.29233e-13 -9.15102e-30 -500)
(3.95709e-21 -1.06998e-27 -500)
(3.29309e-25 -1.07019e-27 -500)
(1.56122e-29 -1.07105e-27 -500)
(-4.92601e-29 -1.07101e-27 -500)
(-3.21695e-24 -1.06509e-27 -500)
(-5.63191e-15 2.2628e-16 -500)
(-5.61231e-13 1.19368e-13 -500)
(-4.96125e-13 6.27757e-13 -500)
(6.19658e-13 2.18691e-13 -500)
(4.80306e-13 7.87212e-14 -500)
(1.27749e-15 1.43319e-23 -500)
(6.94917e-25 -8.91083e-28 -500)
(1.02839e-31 -1.07085e-27 -500)
(-1.56026e-29 -1.07043e-27 -500)
(-3.29116e-25 -1.07085e-27 -500)
(-3.95709e-21 -1.07119e-27 -500)
(1.17511e-15 -9.15534e-30 -500)
(-7.00785e-12 -4.94658e-29 -500)
(6.87701e-12 -2.35884e-23 -500)
(1.29233e-13 -1.15525e-23 -500)
(3.95709e-21 -1.15663e-23 -500)
(3.29309e-25 -1.15663e-23 -500)
(1.56161e-29 -1.15663e-23 -500)
(-4.91178e-29 -1.15663e-23 -500)
(-1.82535e-24 -1.15662e-23 -500)
(3.0563e-15 4.83337e-23 -500)
(-4.39982e-13 4.64041e-14 -500)
(-7.88791e-14 2.64047e-13 -500)
(4.44553e-13 -3.57093e-13 -500)
(-1.47323e-13 -7.54535e-14 -500)
(6.00923e-15 -7.40622e-23 -500)
(1.53062e-24 -1.15663e-23 -500)
(2.12064e-31 -1.15663e-23 -500)
(-1.56013e-29 -1.15663e-23 -500)
(-3.29116e-25 -1.15663e-23 -500)
(-3.95709e-21 -1.15663e-23 -500)
(1.17511e-15 -1.15525e-23 -500)
(-7.00785e-12 -2.35884e-23 -500)
(6.87701e-12 -9.40269e-22 -500)
(1.29233e-13 -3.14418e-22 -500)
(3.95209e-21 -2.88382e-20 -500)
(3.29308e-25 -2.88382e-20 -500)
(1.55982e-29 -2.88382e-20 -500)
(-2.79135e-29 -2.88382e-20 -500)
(-1.35696e-24 -2.88382e-20 -500)
(5.63385e-15 -2.8856e-20 -500)
(-2.24835e-13 8.6144e-14 -500)
(-8.41748e-13 4.44578e-13 -500)
(1.99811e-13 -5.60858e-13 -500)
(1.05544e-12 -1.10576e-13 -500)
(2.33056e-15 -2.88418e-20 -500)
(3.16119e-24 -2.88382e-20 -500)
(5.71766e-31 -2.88382e-20 -500)
(-1.55735e-29 -2.88382e-20 -500)
(-3.29116e-25 -2.88382e-20 -500)
(-3.95209e-21 -2.88382e-20 -500)
(1.17511e-15 -3.1442e-22 -500)
(-7.00785e-12 -9.40269e-22 -500)
(6.87701e-12 -8.091e-15 -500)
(1.29232e-13 1.17515e-15 -500)
(1.37049e-23 1.17512e-15 -500)
(3.29371e-25 1.17512e-15 -500)
(6.03577e-32 1.17512e-15 -500)
(-2.65084e-29 1.17512e-15 -500)
(-3.18354e-24 1.17512e-15 -500)
(1.18344e-14 -2.95048e-15 -500)
(2.64877e-13 -1.60111e-13 -500)
(-6.32262e-13 -1.17476e-12 -500)
(-2.43047e-16 8.38921e-15 -500)
(7.85514e-13 5.61018e-14 -500)
(6.32903e-21 1.17512e-15 -500)
(2.50822e-24 1.17512e-15 -500)
(2.80257e-29 1.17512e-15 -500)
(-4.791e-32 1.17512e-15 -500)
(-3.29371e-25 1.17512e-15 -500)
(-1.37052e-23 1.17512e-15 -500)
(1.17573e-15 1.17515e-15 -500)
(-7.00785e-12 -8.091e-15 -500)
(6.86995e-12 -6.99903e-12 -500)
(1.36805e-13 -7.00785e-12 -500)
(5.11506e-22 -7.00785e-12 -500)
(1.375e-24 -7.00785e-12 -500)
(7.45698e-30 -7.00785e-12 -500)
(-1.67524e-31 -7.00785e-12 -500)
(4.73571e-15 -7.00785e-12 -500)
(-1.58878e-13 -6.99959e-12 -500)
(-1.62994e-12 -6.8013e-12 -500)
(-1.58028e-13 -5.36928e-12 -500)
(1.24396e-12 -5.48301e-12 -500)
(2.40358e-13 -6.77829e-12 -500)
(-7.15269e-15 -7.00785e-12 -500)
(1.5995e-24 -7.00785e-12 -500)
(2.06133e-29 -7.00785e-12 -500)
(-7.39526e-30 -7.00785e-12 -500)
(-1.37498e-24 -7.00785e-12 -500)
(-5.11507e-22 -7.00785e-12 -500)
(-8.09098e-15 -7.00785e-12 -500)
(-6.99903e-12 -6.99903e-12 -500)
(4.54027e-12 4.54027e-12 -500)
(-3.12293e-14 4.53737e-12 -500)
(8.83895e-22 4.53737e-12 -500)
(6.16886e-25 4.53737e-12 -500)
(1.31736e-29 4.53737e-12 -500)
(-3.3008e-29 4.53737e-12 -500)
(1.94386e-15 4.53737e-12 -500)
(-7.50719e-14 4.50238e-12 -500)
(-8.46637e-13 4.02737e-12 -500)
(-7.34892e-13 3.14586e-12 -500)
(5.86259e-13 3.38714e-12 -500)
(8.27784e-13 4.25359e-12 -500)
(2.128e-20 4.53737e-12 -500)
(1.35986e-24 4.53737e-12 -500)
(9.97523e-29 4.53737e-12 -500)
(-1.31547e-29 4.53737e-12 -500)
(-6.16862e-25 4.53737e-12 -500)
(-8.83894e-22 4.53737e-12 -500)
(-1.16491e-15 4.53737e-12 -500)
(-4.51266e-12 4.54027e-12 -500)
(4.53737e-12 -3.12593e-14 -500)
(-2.95617e-14 -2.95617e-14 -500)
(1.343e-23 -2.95616e-14 -500)
(5.06135e-25 -2.95616e-14 -500)
(5.75125e-32 -2.95616e-14 -500)
(-6.08236e-29 -2.95616e-14 -500)
(-2.95116e-24 -2.95616e-14 -500)
(-2.75353e-15 -2.95616e-14 -500)
(-9.05068e-13 3.13512e-13 -500)
(-4.07033e-13 5.66421e-13 -500)
(5.9457e-13 3.32604e-13 -500)
(5.15648e-13 1.62191e-13 -500)
(2.71516e-23 -2.95616e-14 -500)
(1.04411e-24 -2.95616e-14 -500)
(1.48919e-31 -2.95616e-14 -500)
(-3.87731e-32 -2.95616e-14 -500)
(-5.06134e-25 -2.95616e-14 -500)
(-1.34303e-23 -2.95616e-14 -500)
(-1.8636e-15 -2.95617e-14 -500)
(-4.50926e-12 -3.12593e-14 -500)
(4.53737e-12 7.61597e-22 -500)
(-2.95616e-14 3.25181e-22 -500)
(7.17246e-21 5.23568e-20 -500)
(5.06838e-25 5.23568e-20 -500)
(2.83215e-29 5.23568e-20 -500)
(-8.35955e-29 5.23568e-20 -500)
(-3.46739e-24 5.23568e-20 -500)
(1.15356e-15 5.24777e-20 -500)
(-4.87693e-13 -2.67752e-14 -500)
(-4.69978e-13 -2.74114e-13 -500)
(4.84369e-13 -1.22427e-13 -500)
(4.33814e-13 -7.74756e-15 -500)
(8.77277e-22 5.2365e-20 -500)
(-2.36696e-25 5.23568e-20 -500)
(1.30104e-29 5.23568e-20 -500)
(-2.83051e-29 5.23568e-20 -500)
(-5.06489e-25 5.23568e-20 -500)
(-7.17246e-21 5.23568e-20 -500)
(-1.86361e-15 3.25185e-22 -500)
(-4.50926e-12 7.61597e-22 -500)
(4.53737e-12 -9.70541e-24 -500)
(-2.95616e-14 2.36914e-23 -500)
(7.17246e-21 2.37204e-23 -500)
(5.06838e-25 2.37204e-23 -500)
(2.83315e-29 2.37204e-23 -500)
(-1.98499e-29 2.37204e-23 -500)
(-2.64082e-25 2.37208e-23 -500)
(7.20723e-15 6.66425e-23 -500)
(-1.34914e-12 -7.93287e-14 -500)
(-6.41064e-13 -7.60098e-13 -500)
(1.05772e-12 -3.5567e-13 -500)
(7.69143e-13 -8.8658e-14 -500)
(9.09633e-22 4.30149e-24 -500)
(1.3638e-24 2.37204e-23 -500)
(1.32241e-29 2.37204e-23 -500)
(-2.83018e-29 2.37204e-23 -500)
(-5.06489e-25 2.37204e-23 -500)
(-7.17246e-21 2.37204e-23 -500)
(-1.86361e-15 2.36914e-23 -500)
(-4.50926e-12 -9.70541e-24 -500)
(4.53737e-12 5.68309e-29 -500)
(-2.95616e-14 1.42401e-29 -500)
(7.17246e-21 1.95147e-27 -500)
(5.06838e-25 1.95132e-27 -500)
(2.83287e-29 1.95189e-27 -500)
(-4.82352e-29 1.95189e-27 -500)
(-1.65861e-24 8.12518e-28 -500)
(1.28741e-14 -1.13246e-22 -500)
(-1.67245e-12 1.08878e-13 -500)
(-9.1549e-13 1.95573e-13 -500)
(1.41124e-12 -1.76008e-13 -500)
(1.03742e-12 -3.65313e-14 -500)
(-6.7756e-17 1.62933e-25 -500)
(-2.06908e-25 1.83383e-27 -500)
(-4.92273e-32 1.95099e-27 -500)
(-2.83075e-29 1.94997e-27 -500)
(-5.06489e-25 1.95225e-27 -500)
(-7.17246e-21 1.95107e-27 -500)
(-1.86361e-15 1.2822e-29 -500)
(-4.50926e-12 5.69103e-29 -500)
(4.53737e-12 -2.87972e-27 -500)
(-2.95616e-14 -2.68946e-28 -500)
(7.17246e-21 -1.81062e-27 -500)
(5.06838e-25 -2.94877e-27 -500)
(2.83337e-29 -2.5082e-27 -500)
(-7.60786e-29 -1.59591e-27 -500)
(-3.08977e-24 -2.04194e-27 -500)
(1.41845e-14 4.66648e-23 -500)
(-7.09756e-13 1.80573e-13 -500)
(-8.3803e-13 1.05752e-12 -500)
(7.17446e-13 -2.82043e-13 -500)
(9.72123e-13 -4.17474e-14 -500)
(2.57346e-21 -1.03815e-22 -500)
(1.75622e-24 -4.72317e-27 -500)
(3.3136e-29 -3.1371e-27 -500)
(-2.82946e-29 -3.39396e-27 -500)
(-5.06489e-25 -3.52945e-28 -500)
(-7.17246e-21 -2.21953e-27 -500)
(-1.86361e-15 -8.51692e-28 -500)
(-4.50926e-12 -2.87779e-27 -500)
(4.53737e-12 7.05381e-17 -500)
(-2.95616e-14 -3.53532e-23 -500)
(7.17246e-21 -4.30449e-23 -500)
(5.06798e-25 -3.79783e-23 -500)
(7.80257e-29 -2.21927e-23 -500)
(-7.06638e-29 -4.51454e-24 -500)
(-1.34574e-24 -4.17617e-23 -500)
(1.2645e-14 1.21171e-23 -500)
(-1.26735e-13 -2.99163e-14 -500)
(-1.03149e-12 1.42627e-14 -500)
(2.65299e-13 -3.15144e-14 -500)
(1.32561e-12 -3.68929e-14 -500)
(2.06568e-20 -3.51807e-23 -500)
(4.45975e-24 -1.15956e-22 -500)
(8.9534e-29 -5.77352e-23 -500)
(-4.54209e-30 -1.18084e-22 -500)
(-5.06489e-25 -3.13183e-24 -500)
(-7.17246e-21 -5.55412e-23 -500)
(-1.86361e-15 -1.00975e-22 -500)
(-4.50926e-12 -8.08616e-23 -500)
(4.53066e-12 -2.21686e-14 -500)
(-2.95616e-14 -7.57347e-16 -500)
(1.19853e-20 6.12295e-15 -500)
(-2.39638e-22 3.11302e-15 -500)
(1.08004e-19 1.3122e-14 -500)
(-1.68242e-20 9.83268e-15 -500)
(-3.07001e-24 2.19657e-15 -500)
(-4.83464e-16 4.44191e-15 -500)
(-8.65395e-13 -5.53462e-14 -500)
(-7.83185e-13 -4.1022e-13 -500)
(6.97662e-13 3.51077e-13 -500)
(1.09418e-12 6.96753e-14 -500)
(-1.08033e-16 4.73531e-15 -500)
(-1.6471e-19 3.205e-15 -500)
(8.44192e-21 5.19439e-15 -500)
(3.62403e-20 6.88424e-15 -500)
(6.51388e-21 8.31495e-15 -500)
(-1.15536e-20 2.01982e-14 -500)
(-1.85511e-15 6.11082e-17 -500)
(-4.50704e-12 -1.1866e-14 -500)
(4.21023e-12 -9.66601e-13 -500)
(1.41794e-13 -1.0763e-12 -500)
(1.61964e-14 -5.76557e-13 -500)
(-1.52421e-14 -9.72502e-13 -500)
(8.8272e-14 -8.82839e-13 -500)
(-3.59079e-14 -2.97677e-13 -500)
(-8.72264e-14 -1.23483e-12 -500)
(8.87162e-15 -8.31374e-13 -500)
(-6.23033e-13 -6.2245e-13 -500)
(-5.52742e-13 -5.16255e-14 -500)
(6.39136e-13 1.94435e-13 -500)
(5.4772e-13 -5.75441e-13 -500)
(-3.0403e-14 -1.06432e-12 -500)
(-2.04739e-14 -1.02944e-12 -500)
(3.83631e-14 -1.15114e-12 -500)
(2.85848e-14 -8.7914e-13 -500)
(6.25625e-14 -8.84046e-13 -500)
(-3.79334e-15 -8.4256e-14 -500)
(-9.93503e-14 -8.33059e-13 -500)
(-4.2731e-12 -6.37723e-13 -500)
(2.97229e-12 -6.57204e-13 -500)
(5.45423e-13 -7.10347e-13 -500)
(-1.3779e-13 -7.05514e-13 -500)
(-2.8734e-13 -1.70238e-12 -500)
(4.86634e-13 -5.91288e-13 -500)
(-2.10963e-13 -1.14367e-12 -500)
(-2.05369e-13 -6.05112e-13 -500)
(3.28587e-13 -1.30111e-12 -500)
(-1.65564e-13 -4.9212e-13 -500)
(1.30727e-13 4.21546e-14 -500)
(-3.09863e-14 -4.81087e-13 -500)
(-2.21853e-13 -9.70101e-13 -500)
(-1.23186e-14 -5.40074e-13 -500)
(-1.95465e-13 -4.40363e-13 -500)
(2.46809e-14 -5.4898e-13 -500)
(1.9725e-13 -5.80696e-13 -500)
(6.44783e-13 -5.07749e-13 -500)
(1.2132e-13 -1.80495e-13 -500)
(-6.09749e-13 -2.53207e-13 -500)
(-3.29401e-12 2.90132e-14 -500)
(3.26222e-12 7.21741e-13 -500)
(1.53457e-13 7.60572e-13 -500)
(-9.62668e-13 5.44921e-13 -500)
(1.98087e-13 9.92452e-13 -500)
(4.60053e-13 7.32197e-13 -500)
(1.52474e-14 4.66989e-13 -500)
(-2.39262e-14 9.90316e-13 -500)
(8.65877e-14 6.47188e-13 -500)
(5.2997e-13 6.21046e-13 -500)
(-4.952e-13 1.51756e-14 -500)
(-5.55142e-13 -1.95159e-13 -500)
(5.75002e-13 7.35977e-13 -500)
(6.56493e-13 8.16222e-13 -500)
(-2.77847e-14 9.18509e-13 -500)
(-7.41213e-14 1.00716e-12 -500)
(1.38738e-13 9.05027e-13 -500)
(3.217e-13 7.73465e-13 -500)
(1.90269e-13 1.90326e-13 -500)
(3.65015e-14 6.46243e-13 -500)
(-3.7466e-12 5.78559e-13 -500)
(4.33419e-12 6.74046e-13 -500)
(-2.72191e-14 7.16741e-13 -500)
(-1.60842e-13 9.67841e-13 -500)
(5.92788e-14 2.26186e-12 -500)
(6.56983e-14 5.15651e-13 -500)
(-8.12882e-15 1.49336e-12 -500)
(-2.51215e-14 5.08681e-13 -500)
(-1.0744e-14 1.66749e-12 -500)
(-7.27478e-13 4.98831e-13 -500)
(-8.37574e-13 -4.36185e-13 -500)
(7.27841e-13 6.8568e-13 -500)
(9.44412e-13 1.29632e-12 -500)
(1.27242e-13 5.7571e-13 -500)
(-5.2573e-14 4.11172e-13 -500)
(6.58351e-15 9.54184e-13 -500)
(7.22321e-14 7.09464e-13 -500)
(-1.42147e-14 7.3305e-13 -500)
(1.29344e-14 2.88763e-13 -500)
(3.56053e-14 3.4689e-13 -500)
(-4.37628e-12 -7.7964e-14 -500)
(4.53737e-12 1.10371e-19 -500)
(-2.95616e-14 6.83682e-21 -500)
(7.17052e-21 6.56372e-20 -500)
(5.9943e-24 3.14469e-20 -500)
(2.71296e-25 -7.82236e-22 -500)
(-2.99209e-24 6.91491e-20 -500)
(-1.3323e-24 7.3414e-21 -500)
(1.20549e-15 3.59514e-22 -500)
(-1.44127e-12 8.43211e-14 -500)
(-5.09072e-13 3.4108e-13 -500)
(1.06641e-12 1.99876e-13 -500)
(5.53079e-13 2.77603e-14 -500)
(2.06202e-20 1.25871e-20 -500)
(3.11269e-24 7.15379e-21 -500)
(-2.75587e-24 3.39609e-22 -500)
(6.53031e-25 -2.01031e-15 -500)
(6.52014e-25 3.6519e-20 -500)
(-7.17437e-21 5.69339e-20 -500)
(-1.86361e-15 1.62827e-20 -500)
(-4.50926e-12 -1.11586e-15 -500)
(4.53737e-12 4.94679e-23 -500)
(-2.95616e-14 4.4803e-23 -500)
(7.17246e-21 7.67907e-23 -500)
(5.06928e-25 9.42405e-23 -500)
(4.14272e-29 -5.43765e-23 -500)
(-6.20276e-29 6.12185e-23 -500)
(-5.38037e-25 4.16331e-23 -500)
(1.15697e-15 5.25946e-23 -500)
(-2.80034e-13 3.69696e-14 -500)
(-5.83468e-13 3.06475e-13 -500)
(5.52843e-13 -3.49935e-13 -500)
(7.17333e-13 -6.35477e-14 -500)
(-3.66718e-17 6.38684e-23 -500)
(1.18668e-25 2.1856e-23 -500)
(-4.37045e-29 2.15204e-23 -500)
(-2.81804e-29 3.57901e-23 -500)
(-5.06484e-25 4.36681e-23 -500)
(-7.17246e-21 5.81049e-23 -500)
(-1.86361e-15 3.14422e-23 -500)
(-4.50926e-12 5.44651e-23 -500)
(4.53737e-12 3.86157e-27 -500)
(-2.95616e-14 4.03247e-28 -500)
(7.17246e-21 2.85154e-27 -500)
(5.06838e-25 3.38961e-27 -500)
(2.83228e-29 -3.02551e-29 -500)
(-8.91773e-29 2.9084e-27 -500)
(-3.50436e-24 -3.8908e-28 -500)
(6.0204e-15 -9.66831e-23 -500)
(-9.53354e-13 -8.289e-14 -500)
(-9.5484e-13 -3.47063e-13 -500)
(8.18275e-13 -1.05044e-13 -500)
(1.30764e-12 -1.21093e-14 -500)
(-3.3385e-16 -5.38155e-24 -500)
(6.27683e-25 4.49127e-28 -500)
(1.11863e-29 1.84263e-29 -500)
(-2.83014e-29 1.37466e-27 -500)
(-5.06489e-25 5.42107e-28 -500)
(-7.17246e-21 2.47355e-27 -500)
(-1.86361e-15 9.94582e-28 -500)
(-4.50926e-12 2.35857e-27 -500)
(4.53737e-12 -5.82928e-29 -500)
(-2.95616e-14 -1.21713e-29 -500)
(7.17246e-21 -1.94862e-27 -500)
(5.06838e-25 -1.94852e-27 -500)
(2.8319e-29 -1.95148e-27 -500)
(-8.92268e-29 -1.94899e-27 -500)
(-4.22358e-24 -1.94754e-27 -500)
(6.07153e-15 2.48174e-24 -500)
(-1.07504e-12 3.67956e-15 -500)
(-7.84245e-13 7.6557e-14 -500)
(8.87199e-13 1.03005e-13 -500)
(1.07062e-12 -2.7863e-15 -500)
(-2.30412e-15 -8.32848e-24 -500)
(4.45726e-25 -1.6363e-27 -500)
(7.57419e-32 -1.94991e-27 -500)
(-2.83049e-29 -1.94947e-27 -500)
(-5.06489e-25 -1.94974e-27 -500)
(-7.17246e-21 -1.94918e-27 -500)
(-1.86361e-15 -1.23254e-29 -500)
(-4.50926e-12 -5.82047e-29 -500)
(4.53737e-12 9.70542e-24 -500)
(-2.95616e-14 -2.36913e-23 -500)
(7.17246e-21 -2.37165e-23 -500)
(5.06838e-25 -2.37165e-23 -500)
(2.83219e-29 -2.37165e-23 -500)
(-8.91156e-29 -2.37165e-23 -500)
(-3.14495e-24 -2.37162e-23 -500)
(5.72289e-15 6.15766e-23 -500)
(-1.06945e-12 3.04022e-14 -500)
(-8.78865e-13 2.51744e-13 -500)
(7.46101e-13 6.58632e-14 -500)
(1.21823e-12 4.0888e-15 -500)
(-1.71446e-16 -5.54706e-23 -500)
(-8.67019e-26 -2.37165e-23 -500)
(-3.49691e-32 -2.37165e-23 -500)
(-2.83078e-29 -2.37165e-23 -500)
(-5.06489e-25 -2.37165e-23 -500)
(-7.17246e-21 -2.37165e-23 -500)
(-1.86361e-15 -2.36913e-23 -500)
(-4.50926e-12 9.70542e-24 -500)
(4.53737e-12 -7.61616e-22 -500)
(-2.95616e-14 -3.25185e-22 -500)
(7.16332e-21 -5.23568e-20 -500)
(5.06838e-25 -5.23568e-20 -500)
(2.8292e-29 -5.23568e-20 -500)
(-5.05865e-29 -5.23568e-20 -500)
(-1.67889e-24 -5.23568e-20 -500)
(2.92029e-15 -5.24265e-20 -500)
(-7.13066e-13 1.38942e-14 -500)
(-7.03137e-13 -4.19394e-14 -500)
(6.34299e-13 1.43351e-13 -500)
(8.72025e-13 7.87464e-14 -500)
(5.75382e-23 -5.24085e-20 -500)
(2.19165e-24 -5.23568e-20 -500)
(4.42536e-31 -5.23568e-20 -500)
(-2.82628e-29 -5.23568e-20 -500)
(-5.06489e-25 -5.23568e-20 -500)
(-7.16332e-21 -5.23568e-20 -500)
(-1.86361e-15 -3.25189e-22 -500)
(-4.50926e-12 -7.61616e-22 -500)
(4.53737e-12 -1.16426e-15 -500)
(-2.9563e-14 -1.86356e-15 -500)
(1.64557e-23 -1.86362e-15 -500)
(5.06843e-25 -1.86362e-15 -500)
(9.75086e-32 -1.86362e-15 -500)
(-4.77851e-29 -1.86362e-15 -500)
(-3.98103e-24 -1.86362e-15 -500)
(8.80799e-15 -1.86355e-15 -500)
(-1.08902e-12 2.60959e-14 -500)
(-7.22352e-13 -1.42777e-13 -500)
(7.03745e-13 -1.75116e-13 -500)
(7.23216e-13 -9.34778e-15 -500)
(-3.29291e-20 -1.86362e-15 -500)
(2.50343e-24 -1.86362e-15 -500)
(5.05031e-29 -1.86362e-15 -500)
(-7.54988e-32 -1.86362e-15 -500)
(-5.06842e-25 -1.86362e-15 -500)
(-1.64561e-23 -1.86362e-15 -500)
(-1.86228e-15 -1.86356e-15 -500)
(-4.50926e-12 -1.16426e-15 -500)
(4.54027e-12 -4.51266e-12 -500)
(-3.12593e-14 -4.50926e-12 -500)
(8.85729e-22 -4.50926e-12 -500)
(6.17505e-25 -4.50926e-12 -500)
(1.31973e-29 -4.50926e-12 -500)
(-1.97693e-31 -4.50926e-12 -500)
(9.61947e-22 -4.50926e-12 -500)
(4.89924e-15 -4.5012e-12 -500)
(-3.0397e-13 -4.3369e-12 -500)
(-4.06937e-13 -3.23129e-12 -500)
(4.9719e-13 -3.16456e-12 -500)
(6.31372e-13 -4.34757e-12 -500)
(3.68591e-21 -4.50926e-12 -500)
(1.9457e-24 -4.50926e-12 -500)
(3.72882e-29 -4.50926e-12 -500)
(-1.31768e-29 -4.50926e-12 -500)
(-6.17481e-25 -4.50926e-12 -500)
(-8.85729e-22 -4.50926e-12 -500)
(-1.16423e-15 -4.50926e-12 -500)
(-4.51266e-12 -4.51266e-12 -500)
(4.84931e-12 4.84931e-12 -500)
(-1.94041e-16 4.84991e-12 -500)
(1.95434e-24 4.84991e-12 -500)
(6.16669e-25 4.84991e-12 -500)
(1.86096e-31 4.84991e-12 -500)
(-2.60224e-31 4.84991e-12 -500)
(1.99581e-17 4.84991e-12 -500)
(-4.07614e-16 4.85062e-12 -500)
(3.73768e-14 4.71651e-12 -500)
(-1.12778e-12 3.91402e-12 -500)
(1.12151e-13 2.63294e-12 -500)
(1.41866e-12 4.13056e-12 -500)
(2.06401e-23 4.84991e-12 -500)
(8.35543e-25 4.84991e-12 -500)
(1.20008e-31 4.84991e-12 -500)
(-1.71173e-31 4.84991e-12 -500)
(-6.16669e-25 4.84991e-12 -500)
(-1.95434e-24 4.84991e-12 -500)
(-1.3062e-15 4.84991e-12 -500)
(-4.85205e-12 4.84931e-12 -500)
(4.84991e-12 -1.94724e-16 -500)
(6.09573e-16 6.09586e-16 -500)
(1.34299e-23 6.09587e-16 -500)
(5.0615e-25 6.09587e-16 -500)
(6.62719e-32 6.09587e-16 -500)
(-6.1461e-32 6.09587e-16 -500)
(-5.79507e-25 6.09587e-16 -500)
(-2.67555e-15 6.09587e-16 -500)
(-8.00603e-13 -2.16038e-13 -500)
(-8.11987e-13 -1.07585e-12 -500)
(6.4738e-13 4.47985e-13 -500)
(9.77023e-13 3.61962e-13 -500)
(6.21856e-23 6.09587e-16 -500)
(3.03746e-24 6.09587e-16 -500)
(4.93967e-31 6.09587e-16 -500)
(-3.07018e-32 6.09587e-16 -500)
(-5.0615e-25 6.09587e-16 -500)
(-1.34299e-23 6.09587e-16 -500)
(-2.13797e-15 6.09586e-16 -500)
(-4.85255e-12 -1.94724e-16 -500)
(4.84991e-12 -1.22215e-22 -500)
(6.09573e-16 3.25188e-22 -500)
(1.34303e-23 3.25204e-22 -500)
(5.0615e-25 3.25204e-22 -500)
(5.72851e-32 3.25204e-22 -500)
(-3.665e-31 3.25204e-22 -500)
(-3.22553e-24 3.25204e-22 -500)
(3.38698e-15 3.31034e-22 -500)
(-1.43478e-12 -4.64647e-14 -500)
(-8.99877e-13 -2.56409e-13 -500)
(1.01623e-12 -1.69735e-13 -500)
(1.0643e-12 -1.42006e-14 -500)
(-6.9815e-23 3.44732e-22 -500)
(1.26837e-24 3.25204e-22 -500)
(2.4058e-31 3.25204e-22 -500)
(-3.49818e-32 3.25204e-22 -500)
(-5.0615e-25 3.25204e-22 -500)
(-1.34303e-23 3.25204e-22 -500)
(-2.13797e-15 3.25188e-22 -500)
(-4.85255e-12 -1.22215e-22 -500)
(4.84991e-12 -9.70789e-24 -500)
(6.09573e-16 2.36934e-23 -500)
(1.34303e-23 2.36935e-23 -500)
(5.0615e-25 2.36935e-23 -500)
(6.0428e-32 2.36935e-23 -500)
(-2.48421e-31 2.36935e-23 -500)
(-2.07692e-24 2.36935e-23 -500)
(4.07163e-15 3.2412e-23 -500)
(-1.00625e-12 7.44781e-14 -500)
(-8.93031e-13 2.03369e-13 -500)
(9.20543e-13 3.9854e-13 -500)
(1.27286e-12 1.44883e-13 -500)
(5.62771e-23 3.26654e-23 -500)
(2.80982e-24 2.36935e-23 -500)
(4.49203e-31 2.36935e-23 -500)
(-3.20607e-32 2.36935e-23 -500)
(-5.0615e-25 2.36935e-23 -500)
(-1.34303e-23 2.36935e-23 -500)
(-2.13797e-15 2.36934e-23 -500)
(-4.85255e-12 -9.70789e-24 -500)
(4.84991e-12 -7.51015e-30 -500)
(6.09573e-16 1.39479e-29 -500)
(1.34303e-23 1.387e-29 -500)
(5.0615e-25 1.46335e-29 -500)
(5.81507e-32 1.52605e-29 -500)
(-3.48779e-31 1.47119e-29 -500)
(-3.2705e-24 2.47454e-30 -500)
(5.90717e-15 -4.39871e-23 -500)
(-7.19758e-13 1.26236e-13 -500)
(-3.64114e-13 5.92919e-13 -500)
(7.76971e-13 2.15496e-13 -500)
(1.71477e-13 5.29033e-14 -500)
(1.94588e-16 4.51417e-23 -500)
(1.10718e-24 3.04304e-29 -500)
(1.92033e-31 1.44361e-29 -500)
(-3.66334e-32 1.33363e-29 -500)
(-5.0615e-25 1.46578e-29 -500)
(-1.34303e-23 1.40989e-29 -500)
(-2.13797e-15 1.26144e-29 -500)
(-4.85255e-12 -7.29423e-30 -500)
(4.84991e-12 -4.41732e-29 -500)
(6.09573e-16 -3.18201e-29 -500)
(1.34303e-23 -3.32419e-29 -500)
(5.0615e-25 -1.37104e-29 -500)
(5.54214e-32 4.45535e-30 -500)
(-4.58067e-31 -8.48052e-30 -500)
(-3.65146e-24 8.89593e-30 -500)
(8.14408e-15 7.32981e-23 -500)
(-2.71967e-13 1.86584e-14 -500)
(-8.23606e-13 1.87569e-13 -500)
(3.69971e-13 -1.96436e-13 -500)
(9.78481e-13 -9.71019e-14 -500)
(2.56335e-23 -5.55197e-23 -500)
(1.01352e-24 -7.01608e-29 -500)
(1.42752e-31 -2.26016e-29 -500)
(-3.3108e-32 -4.87765e-29 -500)