# Force and moment coefficients
# dragDir     : (0.000000e+00 0.000000e+00 -1.000000e+00)
# sideDir     : (-1.000000e+00 0.000000e+00 0.000000e+00)
# liftDir     : (0.000000e+00 1.000000e+00 0.000000e+00)
# rollAxis    : (0.000000e+00 0.000000e+00 -1.000000e+00)
# pitchAxis   : (-1.000000e+00 0.000000e+00 0.000000e+00)
# yawAxis     : (0.000000e+00 1.000000e+00 0.000000e+00)
# magUInf     : 5.000000e+02
# lRef        : 1.000000e+00
# Aref        : 3.140000e+00
# CofR        : (0.000000e+00 0.000000e+00 0.000000e+00)
#
# Time        	Cd            	Cd(f)         	Cd(r)         	Cl            	Cl(f)         	Cl(r)         	CmPitch       	CmRoll        	CmYaw         	Cs            	Cs(f)         	Cs(r)         
1500          	2.977176e-01	1.427790e-01	1.549386e-01	5.223477e-02	1.080205e-01	-5.578576e-02	8.190315e-02	-6.079787e-03	1.085537e-02	-6.783880e-03	7.463427e-03	-1.424731e-02
