/*--------------------------------*- C++ -*----------------------------------*\
| =========                 |                                                 |
| \\      /  F ield         | OpenFOAM: The Open Source CFD Toolbox           |
|  \\    /   O peration     | Version:  2412                                  |
|   \\  /    A nd           | Website:  www.openfoam.com                      |
|    \\/     M anipulation  |                                                 |
\*---------------------------------------------------------------------------*/
FoamFile
{
    version     2.0;
    format      ascii;
    arch        "LSB;label=32;scalar=64";
    class       volVectorField;
    location    "0.012";
    object      U;
}
// * * * * * * * * * * * * * * * * * * * * * * * * * * * * * * * * * * * * * //

dimensions      [0 1 -1 0 0 0 0];

internalField   nonuniform List<vector> 
124215
(
(1.5094e-11 1.5094e-11 -500)
(5.7087e-14 1.49798e-11 -500)
(-9.41329e-16 1.49863e-11 -500)
(2.36094e-24 1.49863e-11 -500)
(1.80777e-29 1.49863e-11 -500)
(-4.63035e-29 1.49863e-11 -500)
(1.55897e-14 1.49863e-11 -500)
(-1.72955e-13 1.48241e-11 -500)
(-1.00701e-12 1.25312e-11 -500)
(-1.39922e-12 9.9864e-12 -500)
(4.76514e-13 8.79643e-12 -500)
(2.31569e-12 1.14783e-11 -500)
(2.86214e-20 1.49863e-11 -500)
(4.30019e-24 1.49863e-11 -500)
(1.35159e-28 1.49863e-11 -500)
(-1.7978e-29 1.49863e-11 -500)
(-2.36091e-24 1.49863e-11 -500)
(-1.22781e-21 1.49863e-11 -500)
(1.07208e-13 1.49789e-11 -500)
(-1.52615e-11 1.5094e-11 -500)
(1.49798e-11 5.75629e-14 -500)
(1.659e-13 1.659e-13 -500)
(6.13175e-15 1.659e-13 -500)
(8.31651e-25 1.659e-13 -500)
(1.03424e-31 1.659e-13 -500)
(-8.37333e-29 1.659e-13 -500)
(-5.3665e-24 1.659e-13 -500)
(-3.54168e-15 1.65836e-13 -500)
(-5.45078e-13 1.76282e-12 -500)
(-3.89295e-13 2.28092e-12 -500)
(2.09303e-13 3.12394e-12 -500)
(4.46268e-13 2.53505e-12 -500)
(7.86258e-23 1.659e-13 -500)
(3.12943e-24 1.659e-13 -500)
(4.71931e-31 1.659e-13 -500)
(-6.81678e-32 1.659e-13 -500)
(-8.31649e-25 1.659e-13 -500)
(-7.48414e-15 1.659e-13 -500)
(2.33254e-15 1.659e-13 -500)
(-1.51479e-11 5.75629e-14 -500)
(1.49863e-11 -9.48694e-16 -500)
(1.659e-13 6.13175e-15 -500)
(-4.31487e-16 -4.31425e-16 -500)
(8.32617e-25 -4.31425e-16 -500)
(3.89474e-29 -4.31425e-16 -500)
(-9.58816e-29 -4.31425e-16 -500)
(5.06702e-15 -4.31425e-16 -500)
(-1.31396e-13 -1.83925e-14 -500)
(-9.94263e-13 -2.80421e-13 -500)
(-5.62072e-13 -9.67017e-13 -500)
(1.01347e-12 -1.86514e-13 -500)
(1.65091e-12 5.23158e-14 -500)
(1.0103e-21 -4.31425e-16 -500)
(7.70797e-25 -4.31425e-16 -500)
(1.80154e-29 -4.31425e-16 -500)
(-3.89102e-29 -4.31425e-16 -500)
(-8.32136e-25 -4.31425e-16 -500)
(-9.86508e-21 -4.31425e-16 -500)
(2.2843e-15 7.05264e-15 -500)
(-1.51554e-11 -9.48694e-16 -500)
(1.49863e-11 2.79672e-23 -500)
(1.659e-13 3.32822e-23 -500)
(-4.31487e-16 3.3322e-23 -500)
(8.32617e-25 3.3322e-23 -500)
(3.89501e-29 3.3322e-23 -500)
(-2.74792e-29 3.3322e-23 -500)
(2.11462e-15 3.33223e-23 -500)
(-3.58365e-13 -9.51585e-14 -500)
(-2.21257e-12 -6.46246e-13 -500)
(-4.92407e-13 -1.46084e-12 -500)
(1.75743e-12 -5.92895e-13 -500)
(4.65044e-13 -1.69152e-13 -500)
(-7.91745e-16 5.03532e-24 -500)
(4.87804e-24 3.3322e-23 -500)
(1.86646e-29 3.3322e-23 -500)
(-3.88978e-29 3.3322e-23 -500)
(-8.32136e-25 3.3322e-23 -500)
(-9.86508e-21 3.3322e-23 -500)
(2.2843e-15 3.32822e-23 -500)
(-1.51554e-11 2.79673e-23 -500)
(1.49863e-11 1.06878e-28 -500)
(1.659e-13 2.54396e-29 -500)
(-4.31487e-16 2.67847e-27 -500)
(8.32617e-25 2.67729e-27 -500)
(3.89263e-29 2.67878e-27 -500)
(-6.71535e-29 2.6779e-27 -500)
(1.56372e-15 1.10885e-27 -500)
(-3.85765e-13 -4.11584e-14 -500)
(-3.74839e-12 -6.80149e-14 -500)
(-1.34398e-12 2.69208e-13 -500)
(2.40944e-12 -1.88166e-13 -500)
(2.42174e-12 -2.09131e-13 -500)
(-1.55906e-17 4.69737e-23 -500)
(1.97477e-24 2.53025e-27 -500)
(3.10566e-31 2.67645e-27 -500)
(-3.89078e-29 2.67614e-27 -500)
(-8.32136e-25 2.67908e-27 -500)
(-9.86508e-21 2.67722e-27 -500)
(2.2843e-15 2.25981e-29 -500)
(-1.51554e-11 1.07282e-28 -500)
(1.49863e-11 -3.99736e-27 -500)
(1.659e-13 1.15037e-27 -500)
(-4.31487e-16 -2.08779e-27 -500)
(8.32617e-25 -4.08528e-27 -500)
(3.89451e-29 -3.30468e-27 -500)
(-1.04797e-28 -2.23316e-27 -500)
(1.19176e-14 -2.00566e-27 -500)
(-7.60401e-14 2.04359e-22 -500)
(-2.51352e-12 2.54926e-13 -500)
(-8.05731e-13 2.97551e-13 -500)
(1.67126e-12 3.28783e-14 -500)
(1.28128e-12 -1.29811e-13 -500)
(2.11738e-14 -1.497e-22 -500)
(4.88475e-24 -6.462e-27 -500)
(4.59542e-29 -4.35239e-27 -500)
(-3.88854e-29 -4.67726e-27 -500)
(-8.32136e-25 -5.1243e-28 -500)
(-9.86508e-21 -2.92113e-27 -500)
(2.2843e-15 -1.18558e-27 -500)
(-1.51554e-11 -3.98699e-27 -500)
(1.49863e-11 1.16907e-14 -500)
(1.659e-13 -2.17143e-23 -500)
(-4.31487e-16 -8.25005e-23 -500)
(8.32561e-25 6.7114e-15 -500)
(1.07157e-28 8.45425e-16 -500)
(-9.81902e-29 8.60573e-16 -500)
(-2.2973e-17 -5.21742e-23 -500)
(-4.21335e-13 2.91487e-24 -500)
(-3.11803e-12 3.16937e-16 -500)
(-1.03953e-12 -2.69145e-13 -500)
(1.93532e-12 -1.1411e-12 -500)
(2.11502e-12 -3.74033e-13 -500)
(2.2251e-15 -4.80969e-23 -500)
(7.27928e-24 -2.998e-22 -500)
(1.05099e-28 -1.66199e-22 -500)
(-6.75377e-30 4.88479e-15 -500)
(-8.32124e-25 -2.44015e-17 -500)
(-9.86508e-21 4.9372e-15 -500)
(2.2843e-15 -1.61735e-22 -500)
(-1.51554e-11 7.33797e-15 -500)
(1.48583e-11 -1.42878e-13 -500)
(1.65868e-13 1.28518e-15 -500)
(-4.31481e-16 9.59178e-15 -500)
(-3.14954e-14 -2.16806e-13 -500)
(3.51167e-15 -4.12571e-13 -500)
(-1.31263e-14 -2.64432e-13 -500)
(5.57228e-19 3.36735e-15 -500)
(-1.01979e-14 6.33056e-15 -500)
(-2.85342e-12 1.83937e-13 -500)
(-1.68717e-12 7.55798e-13 -500)
(1.67633e-12 -1.54648e-13 -500)
(3.50356e-12 -2.52786e-14 -500)
(3.61573e-17 5.23279e-15 -500)
(-1.62199e-16 -4.78768e-15 -500)
(1.14597e-20 5.11572e-15 -500)
(-1.28567e-14 -2.46587e-13 -500)
(8.38954e-14 -7.95417e-13 -500)
(9.95022e-14 -2.45472e-13 -500)
(1.40206e-15 6.97955e-15 -500)
(-1.51496e-11 -7.99222e-14 -500)
(1.24925e-11 -1.23103e-12 -500)
(1.86402e-12 -1.17147e-12 -500)
(-3.67597e-13 -4.4086e-13 -500)
(-4.3117e-13 -2.64865e-12 -500)
(5.35999e-14 -2.25818e-12 -500)
(-9.46626e-14 -2.32857e-12 -500)
(2.37279e-13 -3.08546e-12 -500)
(-2.05449e-13 -3.5178e-13 -500)
(-1.58615e-12 -2.89975e-12 -500)
(-9.73666e-13 -5.31192e-13 -500)
(9.18345e-13 4.26082e-13 -500)
(1.83844e-12 -1.96711e-12 -500)
(9.30043e-14 -7.6495e-13 -500)
(-6.06834e-13 -2.02006e-12 -500)
(-2.84516e-13 -2.62141e-12 -500)
(-3.03152e-13 -3.66851e-12 -500)
(5.57943e-13 -4.28639e-12 -500)
(7.26664e-13 -1.71768e-12 -500)
(-7.22422e-13 -6.12399e-13 -500)
(-1.35653e-11 -3.44823e-12 -500)
(8.85235e-12 -1.88515e-12 -500)
(2.64469e-12 -1.00071e-12 -500)
(-9.18262e-13 -2.28881e-13 -500)
(-1.2608e-12 -8.38332e-13 -500)
(-1.11386e-13 -4.10626e-13 -500)
(-8.47139e-14 -2.14197e-12 -500)
(1.22998e-12 -8.0625e-13 -500)
(-8.98855e-13 -6.30136e-13 -500)
(-1.83356e-12 -3.86356e-13 -500)
(1.94689e-12 3.82046e-13 -500)
(7.83129e-14 -7.94512e-13 -500)
(4.79825e-13 -1.52451e-12 -500)
(6.78571e-13 -1.44197e-12 -500)
(-1.10523e-12 -4.13566e-13 -500)
(-1.28492e-12 -5.33498e-13 -500)
(-1.24273e-12 -1.17539e-12 -500)
(1.13842e-12 -1.50176e-12 -500)
(1.98941e-12 -3.00008e-15 -500)
(-1.91805e-12 -5.22371e-13 -500)
(-8.70838e-12 -1.01835e-12 -500)
(8.33784e-12 6.88481e-13 -500)
(3.54575e-12 8.78249e-13 -500)
(5.86252e-14 7.50582e-13 -500)
(-1.38527e-13 1.62352e-12 -500)
(-1.1775e-12 1.54445e-12 -500)
(-9.8783e-14 1.87512e-12 -500)
(1.1805e-12 1.69012e-12 -500)
(-1.47955e-13 5.97787e-13 -500)
(-3.50388e-13 2.0053e-12 -500)
(-1.5156e-12 -2.94006e-14 -500)
(-7.31527e-13 3.36842e-14 -500)
(1.10212e-12 1.69709e-12 -500)
(1.8351e-12 1.01175e-12 -500)
(1.01895e-12 1.27739e-12 -500)
(-1.24442e-12 1.94528e-12 -500)
(-1.0547e-12 2.37505e-12 -500)
(1.56248e-12 2.907e-12 -500)
(8.36442e-13 1.42776e-12 -500)
(-3.28895e-12 7.93016e-13 -500)
(-9.29533e-12 1.83925e-12 -500)
(1.12085e-11 3.30663e-12 -500)
(2.74468e-12 1.59804e-12 -500)
(1.68383e-14 2.14904e-13 -500)
(6.23205e-14 1.67401e-12 -500)
(-5.93582e-13 1.05072e-13 -500)
(-1.58054e-13 4.56949e-12 -500)
(5.31225e-13 5.75821e-13 -500)
(1.23687e-14 1.47714e-12 -500)
(-2.59173e-12 6.76198e-13 -500)
(-1.27675e-12 2.30359e-13 -500)
(1.42774e-12 9.61755e-13 -500)
(1.51997e-12 2.51612e-12 -500)
(4.75206e-13 2.27563e-12 -500)
(3.68164e-13 7.98075e-13 -500)
(-1.42506e-13 2.56221e-13 -500)
(-5.67552e-13 2.59472e-12 -500)
(3.48781e-13 2.90775e-12 -500)
(2.75969e-13 -3.56934e-14 -500)
(-8.89393e-13 1.20818e-12 -500)
(-1.33126e-11 2.38728e-12 -500)
(1.49863e-11 1.52559e-19 -500)
(1.659e-13 1.92764e-15 -500)
(-4.31487e-16 4.79939e-16 -500)
(6.93129e-24 -1.0582e-17 -500)
(-2.23918e-15 9.2993e-15 -500)
(-1.03135e-24 1.00909e-19 -500)
(-5.11851e-24 5.01125e-15 -500)
(-1.13566e-15 1.10234e-21 -500)
(-9.42609e-13 1.37878e-13 -500)
(-1.3871e-12 3.31571e-13 -500)
(1.01897e-12 9.09016e-13 -500)
(1.988e-12 2.64987e-13 -500)
(2.35156e-14 5.83494e-22 -500)
(2.988e-16 2.38797e-14 -500)
(-3.51911e-24 -1.78316e-14 -500)
(1.63614e-24 -1.9147e-15 -500)
(3.52937e-24 -2.92518e-18 -500)
(-9.86633e-21 5.67111e-15 -500)
(2.2843e-15 1.92765e-15 -500)
(-1.51554e-11 -5.5589e-16 -500)
(1.49863e-11 1.92083e-22 -500)
(1.659e-13 7.04739e-23 -500)
(-4.31487e-16 1.61337e-22 -500)
(8.3274e-25 1.72073e-22 -500)
(7.63416e-29 4.35166e-24 -500)
(-8.48053e-29 8.19984e-23 -500)
(-1.35202e-24 7.45499e-23 -500)
(2.5645e-15 1.03014e-22 -500)
(-3.16355e-12 -1.55049e-13 -500)
(-4.97356e-13 -1.51512e-14 -500)
(1.85904e-12 8.72298e-13 -500)
(9.8206e-13 2.30691e-13 -500)
(2.05164e-14 1.21515e-22 -500)
(2.57659e-24 9.29435e-23 -500)
(-4.07813e-29 7.09648e-23 -500)
(-3.85927e-29 1.0804e-22 -500)
(-8.3213e-25 1.02886e-22 -500)
(-9.86508e-21 7.88871e-23 -500)
(2.2843e-15 5.34507e-23 -500)
(-1.51554e-11 1.85061e-22 -500)
(1.49863e-11 5.42353e-27 -500)
(1.659e-13 4.09376e-28 -500)
(-4.31487e-16 3.94866e-27 -500)
(8.32617e-25 4.67757e-27 -500)
(3.89532e-29 1.60829e-29 -500)
(-1.22716e-28 3.89769e-27 -500)
(1.36259e-14 -6.86519e-28 -500)
(-1.43349e-13 1.4075e-14 -500)
(-1.69204e-12 2.15772e-13 -500)
(-5.2507e-13 8.12007e-13 -500)
(9.08833e-13 -1.27124e-13 -500)
(7.53854e-13 1.08529e-13 -500)
(2.67694e-15 2.50455e-23 -500)
(3.94162e-24 6.73957e-28 -500)
(1.58534e-29 -3.49769e-28 -500)
(-3.88939e-29 1.83563e-27 -500)
(-8.32136e-25 7.72804e-28 -500)
(-9.86508e-21 3.29933e-27 -500)
(2.2843e-15 1.22328e-27 -500)
(-1.51554e-11 3.36081e-27 -500)
(1.49863e-11 -1.04674e-28 -500)
(1.659e-13 -2.17672e-29 -500)
(-4.31487e-16 -2.6738e-27 -500)
(8.32617e-25 -2.67391e-27 -500)
(3.89334e-29 -2.67708e-27 -500)
(-1.22811e-28 -2.67538e-27 -500)
(-7.61919e-24 -2.66564e-27 -500)
(-1.91347e-17 3.32391e-16 -500)
(-1.15357e-12 2.94113e-13 -500)
(-7.99057e-13 4.90229e-13 -500)
(9.57694e-13 5.99737e-13 -500)
(1.25678e-12 2.09839e-13 -500)
(-6.26753e-16 1.48448e-23 -500)
(1.54747e-24 -2.23444e-27 -500)
(2.42706e-31 -2.67566e-27 -500)
(-3.89086e-29 -2.67488e-27 -500)
(-8.32136e-25 -2.67554e-27 -500)
(-9.86508e-21 -2.67586e-27 -500)
(2.2843e-15 -2.19423e-29 -500)
(-1.51554e-11 -1.04765e-28 -500)
(1.49863e-11 -2.79672e-23 -500)
(1.659e-13 -3.32822e-23 -500)
(-4.31487e-16 -3.33166e-23 -500)
(8.32617e-25 -3.33166e-23 -500)
(3.8942e-29 -3.33166e-23 -500)
(-1.22492e-28 -3.33166e-23 -500)
(-4.5716e-24 -3.33162e-23 -500)
(7.15251e-15 1.0453e-22 -500)
(-7.15941e-13 1.93993e-13 -500)
(-1.76254e-13 2.32041e-13 -500)
(5.47735e-13 -4.57163e-13 -500)
(-3.97454e-13 -1.90851e-13 -500)
(1.1086e-14 -1.47948e-22 -500)
(2.30929e-24 -3.33167e-23 -500)
(3.06953e-31 -3.33166e-23 -500)
(-3.89091e-29 -3.33166e-23 -500)
(-8.32136e-25 -3.33166e-23 -500)
(-9.86508e-21 -3.33166e-23 -500)
(2.2843e-15 -3.32822e-23 -500)
(-1.51554e-11 -2.79672e-23 -500)
(1.49863e-11 -1.7962e-21 -500)
(1.659e-13 -7.48414e-15 -500)
(-4.31487e-16 -7.19706e-20 -500)
(8.32616e-25 -7.19707e-20 -500)
(3.88983e-29 -7.19707e-20 -500)
(-6.96041e-29 -7.19707e-20 -500)
(-3.20968e-24 -7.19706e-20 -500)
(4.12726e-15 -7.20475e-20 -500)
(-7.94931e-13 2.3885e-13 -500)
(-1.02023e-12 4.80637e-13 -500)
(6.14275e-13 -8.35338e-13 -500)
(1.95135e-12 -2.51726e-13 -500)
(3.42248e-15 -7.20073e-20 -500)
(6.25182e-24 -7.19707e-20 -500)
(1.15157e-30 -7.19707e-20 -500)
(-3.88419e-29 -7.19707e-20 -500)
(-8.32136e-25 -7.19707e-20 -500)
(-9.85257e-21 -7.19706e-20 -500)
(2.2843e-15 -7.66756e-15 -500)
(-1.51554e-11 -1.7962e-21 -500)
(1.49789e-11 1.06478e-13 -500)
(1.65899e-13 2.33261e-15 -500)
(7.05264e-15 2.28431e-15 -500)
(8.32788e-25 2.28431e-15 -500)
(1.5049e-31 2.28431e-15 -500)
(-6.59805e-29 2.28431e-15 -500)
(-7.36461e-24 2.28431e-15 -500)
(7.79227e-14 -5.27921e-14 -500)
(5.51126e-13 -5.93614e-13 -500)
(-5.24646e-13 -1.95238e-12 -500)
(-3.84172e-14 -1.16948e-12 -500)
(9.13086e-13 -1.51427e-13 -500)
(-1.44878e-17 2.28431e-15 -500)
(5.22948e-24 2.28431e-15 -500)
(6.97088e-29 2.28431e-15 -500)
(-1.17861e-31 2.28431e-15 -500)
(-8.32787e-25 2.28431e-15 -500)
(-7.66756e-15 2.28431e-15 -500)
(2.41355e-15 2.41188e-15 -500)
(-1.51478e-11 1.06199e-13 -500)
(1.5094e-11 -1.52615e-11 -500)
(5.75628e-14 -1.51479e-11 -500)
(-9.48694e-16 -1.51554e-11 -500)
(2.44493e-24 -1.51554e-11 -500)
(1.84293e-29 -1.51554e-11 -500)
(-4.15363e-31 -1.51554e-11 -500)
(1.15264e-15 -1.51554e-11 -500)
(-6.35801e-13 -1.50095e-11 -500)
(-3.11875e-12 -1.3892e-11 -500)
(-1.85688e-13 -1.0991e-11 -500)
(1.9552e-12 -1.0898e-11 -500)
(6.90426e-13 -1.38979e-11 -500)
(-1.05263e-14 -1.51554e-11 -500)
(3.83695e-24 -1.51554e-11 -500)
(5.14043e-29 -1.51554e-11 -500)
(-1.8325e-29 -1.51554e-11 -500)
(-2.44489e-24 -1.51554e-11 -500)
(-1.25183e-21 -1.51554e-11 -500)
(1.06199e-13 -1.51478e-11 -500)
(-1.52611e-11 -1.52611e-11 -500)
(4.76905e-12 4.76905e-12 -500)
(-7.39115e-14 4.77018e-12 -500)
(-7.58515e-15 4.77006e-12 -500)
(1.33076e-24 4.77006e-12 -500)
(1.94784e-29 4.77006e-12 -500)
(-4.86942e-29 4.77006e-12 -500)
(1.65591e-14 4.77006e-12 -500)
(-1.01866e-13 4.7345e-12 -500)
(-1.17094e-12 4.27595e-12 -500)
(-1.12338e-12 3.71974e-12 -500)
(6.24899e-13 3.84376e-12 -500)
(1.45404e-12 4.34075e-12 -500)
(2.33338e-20 4.77006e-12 -500)
(2.69735e-24 4.77006e-12 -500)
(1.46634e-28 4.77006e-12 -500)
(-1.94409e-29 4.77006e-12 -500)
(-1.33072e-24 4.77006e-12 -500)
(-1.29973e-21 4.77006e-12 -500)
(2.75075e-16 4.77018e-12 -500)
(-4.69505e-12 4.76905e-12 -500)
(4.77018e-12 -7.44856e-14 -500)
(-7.07298e-14 -7.07299e-14 -500)
(-5.06702e-15 -7.07298e-14 -500)
(1.09198e-24 -7.07298e-14 -500)
(1.29975e-31 -7.07298e-14 -500)
(-8.9388e-29 -7.07298e-14 -500)
(-4.67176e-24 -7.07298e-14 -500)
(-4.79629e-15 -7.06868e-14 -500)
(-7.33906e-13 1.40763e-13 -500)
(-5.29102e-13 5.4154e-13 -500)
(3.14938e-13 7.76059e-13 -500)
(6.93459e-13 5.54527e-14 -500)
(8.12029e-23 -7.07298e-14 -500)
(3.54142e-24 -7.07298e-14 -500)
(5.46174e-31 -7.07298e-14 -500)
(-7.83105e-32 -7.07298e-14 -500)
(-1.09197e-24 -7.07298e-14 -500)
(-2.8975e-23 -7.07298e-14 -500)
(4.02434e-15 -7.07299e-14 -500)
(-4.69507e-12 -7.44856e-14 -500)
(4.77006e-12 -7.61649e-15 -500)
(-7.07298e-14 -5.06702e-15 -500)
(-5.06701e-15 -5.06694e-15 -500)
(1.09301e-24 -5.06694e-15 -500)
(4.16425e-29 -5.06694e-15 -500)
(-1.23033e-28 -5.06694e-15 -500)
(-7.15238e-24 -5.06694e-15 -500)
(2.0227e-14 -5.06694e-15 -500)
(-9.22962e-13 -1.3824e-13 -500)
(-8.31956e-13 -7.9659e-13 -500)
(6.74463e-13 -4.11417e-13 -500)
(9.09504e-13 -1.04621e-13 -500)
(-1.67896e-21 -5.06694e-15 -500)
(4.79347e-25 -5.06694e-15 -500)
(1.92682e-29 -5.06694e-15 -500)
(-4.16027e-29 -5.06694e-15 -500)
(-1.09249e-24 -5.06694e-15 -500)
(-1.05451e-20 -5.06694e-15 -500)
(4.02433e-15 -5.06702e-15 -500)
(-4.6949e-12 -7.61649e-15 -500)
(4.77006e-12 -2.09407e-23 -500)
(-7.07298e-14 5.11145e-23 -500)
(-5.06701e-15 5.11571e-23 -500)
(1.09301e-24 5.11571e-23 -500)
(4.1658e-29 5.11571e-23 -500)
(-2.93599e-29 5.11571e-23 -500)
(-2.05978e-24 5.11577e-23 -500)
(7.80585e-14 1.9296e-14 -500)
(-1.96467e-12 -6.83764e-14 -500)
(-1.14635e-12 -7.07648e-13 -500)
(1.54059e-12 -2.12804e-13 -500)
(1.71287e-12 -2.14711e-14 -500)
(1.37733e-21 2.45389e-23 -500)
(4.0547e-24 5.11572e-23 -500)
(1.97587e-29 5.11571e-23 -500)
(-4.15951e-29 5.11571e-23 -500)
(-1.09249e-24 5.11571e-23 -500)
(-1.05451e-20 5.11571e-23 -500)
(4.02433e-15 5.11145e-23 -500)
(-4.6949e-12 -2.09407e-23 -500)
(4.77006e-12 7.83986e-29 -500)
(-7.07298e-14 3.05873e-29 -500)
(-5.06701e-15 2.87626e-27 -500)
(1.09301e-24 2.8763e-27 -500)
(4.16533e-29 2.87755e-27 -500)
(-7.10896e-29 2.87721e-27 -500)
(-4.63432e-24 1.19664e-27 -500)
(1.17288e-13 9.40648e-15 -500)
(-2.19405e-12 2.84416e-13 -500)
(-1.0269e-12 6.22422e-13 -500)
(1.51569e-12 2.19717e-13 -500)
(1.21672e-12 6.85442e-14 -500)
(2.44765e-16 3.43054e-23 -500)
(6.64694e-25 2.71578e-27 -500)
(9.51158e-32 2.87587e-27 -500)
(-4.16064e-29 2.87363e-27 -500)
(-1.09249e-24 2.87779e-27 -500)
(-1.05451e-20 2.87574e-27 -500)
(4.02433e-15 2.76355e-29 -500)
(-4.6949e-12 7.86726e-29 -500)
(4.77006e-12 -4.25828e-27 -500)
(-7.07298e-14 -4.15219e-28 -500)
(-5.06701e-15 -2.67923e-27 -500)
(1.09301e-24 -4.34491e-27 -500)
(4.1659e-29 -3.68562e-27 -500)
(-1.12062e-28 -2.35396e-27 -500)
(-7.04368e-24 -2.99289e-27 -500)
(4.43928e-14 1.13e-22 -500)
(-3.22521e-13 4.12751e-13 -500)
(-7.24966e-13 1.53813e-12 -500)
(6.05989e-13 3.80652e-13 -500)
(1.2377e-12 -2.378e-14 -500)
(3.78157e-21 -1.78913e-22 -500)
(3.29493e-24 -6.9832e-27 -500)
(4.87775e-29 -4.6224e-27 -500)
(-4.15863e-29 -5.01756e-27 -500)
(-1.09249e-24 -5.29051e-28 -500)
(-1.05451e-20 -3.27847e-27 -500)
(4.02433e-15 -1.2949e-27 -500)
(-4.6949e-12 -4.25193e-27 -500)
(4.77006e-12 3.36382e-15 -500)
(-7.07298e-14 -8.08301e-23 -500)
(-5.06701e-15 -9.21171e-23 -500)
(1.09295e-24 -7.16225e-23 -500)
(1.14699e-28 -3.41341e-23 -500)
(-1.04102e-28 -1.50517e-23 -500)
(-3.02898e-24 -6.06195e-23 -500)
(1.00516e-13 -3.14461e-23 -500)
(8.56721e-13 -1.24687e-13 -500)
(-5.10944e-13 -1.77242e-13 -500)
(5.2699e-14 4.69938e-13 -500)
(1.09956e-12 2.0497e-13 -500)
(3.03788e-20 -1.06039e-22 -500)
(8.12417e-24 -2.30267e-22 -500)
(1.31709e-28 -1.02322e-22 -500)
(-6.58873e-30 -2.2686e-22 -500)
(-1.09249e-24 -2.0367e-23 -500)
(-1.05451e-20 -1.08658e-22 -500)
(4.02433e-15 -2.23602e-22 -500)
(-4.6949e-12 2.91656e-17 -500)
(4.75265e-12 -4.04087e-14 -500)
(-7.07208e-14 4.7778e-15 -500)
(-5.067e-15 1.55128e-14 -500)
(-3.49922e-22 6.07583e-14 -500)
(1.58651e-19 1.07632e-13 -500)
(-2.47149e-20 7.68655e-14 -500)
(-7.00357e-24 4.34628e-15 -500)
(1.19904e-14 9.78461e-15 -500)
(-1.00478e-12 -2.88985e-13 -500)
(-3.24542e-13 -7.93324e-13 -500)
(6.30827e-13 4.06132e-14 -500)
(7.36431e-14 1.07257e-13 -500)
(1.1348e-15 9.60598e-15 -500)
(-2.41947e-19 1.49751e-14 -500)
(1.24004e-20 1.41439e-14 -500)
(5.32356e-20 7.37133e-14 -500)
(-1.66885e-14 1.72593e-13 -500)
(-1.76328e-14 6.58677e-14 -500)
(4.08339e-15 7.14243e-15 -500)
(-4.69253e-12 -3.01917e-15 -500)
(4.21357e-12 -1.26284e-12 -500)
(1.70034e-13 -1.43843e-12 -500)
(6.25837e-14 -9.39541e-13 -500)
(2.6155e-14 -1.32066e-12 -500)
(2.37753e-13 -1.03771e-12 -500)
(-9.04268e-14 3.55227e-14 -500)
(-1.13146e-13 -1.98524e-12 -500)
(1.14897e-13 -5.3562e-13 -500)
(-6.07165e-13 -1.6574e-13 -500)
(-3.63441e-13 -2.09414e-13 -500)
(5.84607e-13 -2.79989e-13 -500)
(2.79582e-13 -6.54161e-13 -500)
(4.59609e-15 -8.23366e-13 -500)
(3.3695e-14 -1.53039e-12 -500)
(7.75326e-14 -9.95124e-13 -500)
(2.45229e-13 -1.37557e-12 -500)
(9.15691e-14 1.55288e-13 -500)
(-2.06554e-13 3.51135e-13 -500)
(-1.52815e-13 -9.1084e-13 -500)
(-4.40724e-12 -2.46711e-14 -500)
(3.58969e-12 -5.84953e-13 -500)
(1.07172e-12 -5.72551e-13 -500)
(9.38308e-14 -1.19827e-12 -500)
(-1.8144e-14 -2.25902e-12 -500)
(6.78817e-13 -9.33616e-13 -500)
(-4.77866e-13 -8.26799e-13 -500)
(1.82446e-13 -6.94423e-13 -500)
(8.25736e-13 -1.24929e-12 -500)
(-6.63015e-13 -2.06652e-13 -500)
(-2.96824e-13 -2.70838e-13 -500)
(-3.58037e-14 -8.73827e-13 -500)
(1.31263e-13 -8.0261e-13 -500)
(-2.93267e-13 -4.32537e-13 -500)
(-3.75793e-13 -4.81125e-13 -500)
(-1.02576e-13 -7.96523e-13 -500)
(4.73757e-13 -6.84294e-13 -500)
(1.19746e-12 -3.84809e-13 -500)
(-1.08246e-13 6.38685e-14 -500)
(-1.13125e-12 -2.51712e-13 -500)
(-4.3848e-12 4.52855e-13 -500)
(4.59468e-12 8.06944e-13 -500)
(1.87206e-13 8.09223e-13 -500)
(-1.51551e-12 7.73287e-13 -500)
(1.99764e-13 1.00748e-12 -500)
(9.54879e-13 7.13774e-13 -500)
(2.89232e-13 4.19368e-13 -500)
(-2.05607e-13 1.2066e-12 -500)
(4.043e-13 2.70959e-13 -500)
(2.08458e-13 4.43235e-13 -500)
(-1.15125e-12 2.78239e-13 -500)
(-2.00458e-13 6.57554e-14 -500)
(1.21355e-12 6.5104e-13 -500)
(2.42875e-13 4.75115e-13 -500)
(-4.38861e-13 1.07379e-12 -500)
(-4.73314e-14 9.05038e-13 -500)
(4.80045e-13 1.23511e-12 -500)
(6.22484e-13 5.3355e-13 -500)
(4.36183e-14 1.64224e-13 -500)
(-5.41577e-13 4.19941e-13 -500)
(-5.42671e-12 4.69763e-13 -500)
(4.86852e-12 5.94821e-14 -500)
(-4.33188e-13 5.79716e-13 -500)
(-4.84518e-13 1.68313e-12 -500)
(1.04721e-13 3.92365e-12 -500)
(3.50724e-13 1.14747e-12 -500)
(4.6197e-14 1.23294e-12 -500)
(-2.10658e-13 6.8903e-13 -500)
(-1.45052e-15 2.14167e-12 -500)
(-3.93707e-13 1.39712e-13 -500)
(-4.86731e-13 -3.719e-13 -500)
(5.08698e-13 5.7437e-13 -500)
(6.30891e-13 9.99658e-13 -500)
(1.45612e-13 2.24476e-13 -500)
(-1.86919e-13 6.77897e-13 -500)
(6.19453e-14 1.85368e-12 -500)
(3.24256e-13 7.43665e-13 -500)
(1.18156e-14 5.00175e-13 -500)
(-1.01535e-13 4.45042e-14 -500)
(2.12064e-13 5.55303e-13 -500)
(-4.70198e-12 -1.25734e-12 -500)
(4.77006e-12 1.33852e-19 -500)
(-7.07298e-14 1.06604e-20 -500)
(-5.06701e-15 -2.09807e-18 -500)
(9.42277e-24 -7.61363e-17 -500)
(-3.80783e-25 -1.44256e-21 -500)
(-6.45619e-24 1.02143e-19 -500)
(-1.71945e-25 9.35765e-21 -500)
(3.44506e-15 -2.84767e-21 -500)
(-2.32396e-12 1.62316e-13 -500)
(-9.94506e-13 2.62992e-13 -500)
(1.42736e-12 2.11203e-13 -500)
(1.01689e-12 8.87163e-15 -500)
(3.02858e-20 -9.89154e-20 -500)
(3.97554e-24 1.1153e-20 -500)
(-5.09242e-24 5.22348e-22 -500)
(1.6625e-24 -3.36442e-15 -500)
(1.88098e-24 -9.8103e-17 -500)
(-1.05469e-20 8.38593e-20 -500)
(4.02433e-15 2.43147e-20 -500)
(-4.6949e-12 1.59301e-16 -500)
(4.77006e-12 7.96269e-23 -500)
(-7.07298e-14 1.11123e-22 -500)
(-5.06701e-15 1.20552e-22 -500)
(1.09314e-24 1.86239e-22 -500)
(6.0764e-29 -9.77863e-23 -500)
(-9.15223e-29 1.32002e-22 -500)
(-1.58279e-24 1.27124e-22 -500)
(1.68968e-15 9.03813e-23 -500)
(7.43467e-14 1.95699e-13 -500)
(-3.61677e-13 7.12887e-13 -500)
(6.359e-13 6.51943e-14 -500)
(4.92164e-13 -1.1441e-13 -500)
(-1.73038e-16 1.0309e-22 -500)
(6.30518e-25 7.49778e-23 -500)
(-6.4344e-29 7.65905e-23 -500)
(-4.1286e-29 7.53844e-23 -500)
(-1.09249e-24 1.2416e-22 -500)
(-1.05451e-20 1.02564e-22 -500)
(4.02433e-15 6.98878e-23 -500)
(-4.6949e-12 1.10127e-22 -500)
(4.77006e-12 5.68207e-27 -500)
(-7.07298e-14 6.2404e-28 -500)
(-5.06701e-15 4.19916e-27 -500)
(1.09301e-24 5.01344e-27 -500)
(4.16427e-29 -5.03905e-29 -500)
(-1.31173e-28 4.30384e-27 -500)
(-6.40728e-24 -5.37045e-28 -500)
(4.81281e-14 -1.75007e-22 -500)
(-7.80627e-13 -2.45717e-13 -500)
(-9.42098e-13 -5.94225e-13 -500)
(8.75679e-13 -3.90164e-13 -500)
(1.82182e-12 -3.74457e-14 -500)
(-2.25521e-15 -1.62892e-23 -500)
(2.3963e-24 6.84077e-28 -500)
(1.66845e-29 6.05634e-29 -500)
(-4.1592e-29 2.0412e-27 -500)
(-1.09249e-24 8.35618e-28 -500)
(-1.05451e-20 3.64898e-27 -500)
(4.02433e-15 1.47962e-27 -500)
(-4.6949e-12 3.48856e-27 -500)
(4.77006e-12 -8.18188e-29 -500)
(-7.07298e-14 -2.59597e-29 -500)
(-5.06701e-15 -2.87114e-27 -500)
(1.09301e-24 -2.87024e-27 -500)
(4.16363e-29 -2.87583e-27 -500)
(-1.31392e-28 -2.87094e-27 -500)
(-8.99931e-24 -2.8677e-27 -500)
(1.17449e-14 -3.22344e-24 -500)
(-1.94042e-12 -2.0803e-15 -500)
(-9.97629e-13 1.56588e-13 -500)
(1.26707e-12 1.54325e-14 -500)
(1.3068e-12 -2.66755e-14 -500)
(-8.91161e-15 -1.84567e-23 -500)
(2.1861e-24 -2.41051e-27 -500)
(3.82754e-31 -2.87223e-27 -500)
(-4.16003e-29 -2.87202e-27 -500)
(-1.09249e-24 -2.87189e-27 -500)
(-1.05451e-20 -2.87182e-27 -500)
(4.02433e-15 -2.66453e-29 -500)
(-4.6949e-12 -8.1232e-29 -500)
(4.77006e-12 2.09407e-23 -500)
(-7.07298e-14 -5.11144e-23 -500)
(-5.06701e-15 -5.11514e-23 -500)
(1.09301e-24 -5.11514e-23 -500)
(4.16478e-29 -5.11514e-23 -500)
(-1.3097e-28 -5.11514e-23 -500)
(-5.24264e-24 -5.1151e-23 -500)
(9.87507e-15 8.47436e-23 -500)
(-9.42603e-13 2.31514e-14 -500)
(-1.11725e-12 3.42324e-13 -500)
(7.99384e-13 -6.98742e-14 -500)
(1.90737e-12 -3.3974e-14 -500)
(-2.1072e-15 -1.2415e-22 -500)
(4.64451e-25 -5.11514e-23 -500)
(3.07881e-32 -5.11514e-23 -500)
(-4.16091e-29 -5.11514e-23 -500)
(-1.09249e-24 -5.11514e-23 -500)
(-1.05451e-20 -5.11514e-23 -500)
(4.02433e-15 -5.11144e-23 -500)
(-4.6949e-12 2.09407e-23 -500)
(4.77006e-12 -1.03463e-21 -500)
(-7.07298e-14 -7.01573e-22 -500)
(-5.06701e-15 -7.71328e-20 -500)
(1.09301e-24 -7.71329e-20 -500)
(4.16009e-29 -7.71329e-20 -500)
(-7.44844e-29 -7.71329e-20 -500)
(-3.95215e-24 -7.71329e-20 -500)
(1.54426e-14 -7.72953e-20 -500)
(-1.57463e-12 -1.4373e-13 -500)
(-1.08225e-12 -3.80603e-13 -500)
(1.10575e-12 -2.0895e-13 -500)
(1.33853e-12 5.6438e-14 -500)
(-2.27245e-17 -7.72208e-20 -500)
(5.24587e-24 -7.71329e-20 -500)
(9.87026e-31 -7.71329e-20 -500)
(-4.15376e-29 -7.71329e-20 -500)
(-1.09249e-24 -7.71329e-20 -500)
(-1.05317e-20 -7.71328e-20 -500)
(4.02433e-15 -7.01579e-22 -500)
(-4.6949e-12 -1.03463e-21 -500)
(4.77018e-12 3.54854e-16 -500)
(-7.07321e-14 4.02439e-15 -500)
(-5.06702e-15 4.02431e-15 -500)
(1.09344e-24 4.02431e-15 -500)
(1.81051e-31 4.02431e-15 -500)
(-7.04871e-29 4.02431e-15 -500)
(-8.20581e-24 4.02431e-15 -500)
(-3.99596e-15 1.08235e-14 -500)
(-1.65691e-12 1.05475e-13 -500)
(-1.02953e-12 -1.82663e-13 -500)
(5.83321e-13 -6.72345e-13 -500)
(1.54878e-12 -1.23082e-13 -500)
(-8.9433e-17 4.02431e-15 -500)
(4.36399e-24 4.02431e-15 -500)
(7.42829e-29 4.02431e-15 -500)
(-1.37992e-31 4.02431e-15 -500)
(-1.09344e-24 4.02431e-15 -500)
(-3.34099e-23 4.02431e-15 -500)
(4.02676e-15 4.02439e-15 -500)
(-4.69507e-12 3.79849e-16 -500)
(4.76905e-12 -4.69505e-12 -500)
(-7.44856e-14 -4.69507e-12 -500)
(-7.61649e-15 -4.6949e-12 -500)
(1.33209e-24 -4.6949e-12 -500)
(1.95097e-29 -4.6949e-12 -500)
(-6.09424e-31 -4.6949e-12 -500)
(4.90783e-17 -4.6949e-12 -500)
(9.54633e-14 -4.66285e-12 -500)
(7.37876e-14 -4.36381e-12 -500)
(-6.82873e-13 -4.07564e-12 -500)
(4.76584e-13 -3.90725e-12 -500)
(1.25011e-12 -4.37934e-12 -500)
(-1.26248e-16 -4.6949e-12 -500)
(5.02808e-24 -4.6949e-12 -500)
(5.51406e-29 -4.6949e-12 -500)
(-1.94678e-29 -4.6949e-12 -500)
(-1.33206e-24 -4.6949e-12 -500)
(-1.30242e-21 -4.6949e-12 -500)
(3.79897e-16 -4.69507e-12 -500)
(-4.69505e-12 -4.69505e-12 -500)
(7.25202e-12 7.25202e-12 -500)
(2.91606e-14 7.25373e-12 -500)
(4.21633e-24 7.25373e-12 -500)
(1.33044e-24 7.25373e-12 -500)
(3.96436e-31 7.25373e-12 -500)
(-7.18471e-31 7.25373e-12 -500)
(3.49386e-15 7.25373e-12 -500)
(4.07615e-15 7.24939e-12 -500)
(1.01773e-13 6.66391e-12 -500)
(-1.25315e-12 5.20921e-12 -500)
(7.4479e-14 3.84861e-12 -500)
(1.96397e-12 5.00932e-12 -500)
(-2.77376e-19 7.25373e-12 -500)
(2.51687e-24 7.25373e-12 -500)
(3.80928e-31 7.25373e-12 -500)
(-3.66912e-31 7.25373e-12 -500)
(-1.33044e-24 7.25373e-12 -500)
(-4.21633e-24 7.25373e-12 -500)
(-6.66925e-15 7.25373e-12 -500)
(-7.27034e-12 7.25202e-12 -500)
(7.25373e-12 2.91591e-14 -500)
(2.94169e-14 2.94169e-14 -500)
(2.89745e-23 2.94169e-14 -500)
(1.092e-24 2.94169e-14 -500)
(1.42435e-31 2.94169e-14 -500)
(-1.24043e-31 2.94169e-14 -500)
(-8.81109e-25 2.94169e-14 -500)
(-2.46284e-15 2.94169e-14 -500)
(-1.1415e-12 -2.06542e-13 -500)
(-6.94155e-13 -2.86719e-14 -500)
(6.8858e-13 9.69487e-13 -500)
(1.16736e-12 1.24909e-12 -500)
(1.25523e-22 2.94169e-14 -500)
(6.09704e-24 2.94169e-14 -500)
(9.95293e-31 2.94169e-14 -500)
(-6.74773e-32 2.94169e-14 -500)
(-1.092e-24 2.94169e-14 -500)
(-2.89745e-23 2.94169e-14 -500)
(-8.47058e-15 2.94169e-14 -500)
(-7.27198e-12 2.91591e-14 -500)
(7.25373e-12 -2.63674e-22 -500)
(2.94169e-14 7.01575e-22 -500)
(2.89751e-23 7.01599e-22 -500)
(1.092e-24 7.01599e-22 -500)
(1.2609e-31 7.01599e-22 -500)
(-6.91625e-31 7.01599e-22 -500)
(-5.98532e-24 7.01599e-22 -500)
(6.70207e-15 6.49689e-22 -500)
(-1.70003e-12 -1.13862e-13 -500)
(-1.05355e-12 -1.57316e-13 -500)
(9.51063e-13 -6.92286e-13 -500)
(1.58631e-12 -6.42758e-14 -500)
(-3.49662e-20 7.34378e-22 -500)
(2.48976e-24 7.01599e-22 -500)
(4.69165e-31 7.01599e-22 -500)
(-7.6619e-32 7.01599e-22 -500)
(-1.092e-24 7.01599e-22 -500)
(-2.89751e-23 7.01599e-22 -500)
(-8.47058e-15 7.01575e-22 -500)
(-7.27198e-12 -2.63674e-22 -500)
(7.25373e-12 -2.09444e-23 -500)
(2.94169e-14 5.11173e-23 -500)
(2.89751e-23 5.11173e-23 -500)
(1.092e-24 5.11173e-23 -500)
(1.25776e-31 5.11173e-23 -500)
(-6.94567e-31 5.11173e-23 -500)
(-5.74279e-24 5.11173e-23 -500)
(-6.65052e-15 3.54877e-23 -500)
(-1.18964e-12 1.03904e-13 -500)
(-1.31434e-12 6.17496e-14 -500)
(8.51343e-13 3.43061e-13 -500)
(2.25506e-12 2.94434e-13 -500)
(1.33867e-22 4.72775e-23 -500)
(6.67296e-24 5.11173e-23 -500)
(1.09592e-30 5.11173e-23 -500)
(-6.60838e-32 5.11173e-23 -500)
(-1.092e-24 5.11173e-23 -500)
(-2.89751e-23 5.11173e-23 -500)
(-8.47058e-15 5.11173e-23 -500)
(-7.27198e-12 -2.09444e-23 -500)
(7.25373e-12 -1.57212e-29 -500)
(2.94169e-14 3.0428e-29 -500)
(2.89751e-23 3.05926e-29 -500)
(1.092e-24 3.07666e-29 -500)
(1.26511e-31 3.20435e-29 -500)
(-7.18819e-31 3.10605e-29 -500)
(-6.72091e-24 1.28103e-29 -500)
(-1.15858e-14 -7.09689e-23 -500)
(-7.46091e-13 2.11275e-13 -500)
(-6.36244e-13 4.03228e-13 -500)
(7.25881e-13 7.30684e-13 -500)
(3.38549e-13 1.84488e-13 -500)
(1.50643e-15 1.12901e-22 -500)
(3.48726e-24 7.09851e-29 -500)
(6.01079e-31 3.1442e-29 -500)
(-7.50204e-32 2.91347e-29 -500)
(-1.092e-24 3.14405e-29 -500)
(-2.89751e-23 3.06032e-29 -500)
(-8.47058e-15 2.78565e-29 -500)
(-7.27198e-12 -1.51979e-29 -500)
(7.25373e-12 -8.29512e-29 -500)
(2.94169e-14 -5.97513e-29 -500)
(2.89751e-23 -5.32796e-29 -500)
(1.092e-24 -5.10264e-29 -500)
(1.21634e-31 -1.43466e-29 -500)
(-9.3631e-31 -3.89812e-29 -500)
(-7.77103e-24 1.90012e-29 -500)
(-1.07616e-14 1.22617e-22 -500)
(-6.77892e-13 -3.39316e-14 -500)
(-5.87984e-13 2.82546e-13 -500)
(5.40105e-13 2.61455e-13 -500)
(1.09646e-12 -6.32569e-14 -500)
(-1.82793e-22 -5.72901e-23 -500)
(2.29974e-24 -1.34647e-28 -500)
(3.34828e-31 -4.01089e-29 -500)
(-7.47332e-32 -9.58231e-29 -500)
(-1.092e-24 -3.46742e-29 -500)
(-2.89751e-23 -5.40344e-29 -500)