/*--------------------------------*- C++ -*----------------------------------*\
| =========                 |                                                 |
| \\      /  F ield         | OpenFOAM: The Open Source CFD Toolbox           |
|  \\    /   O peration     | Version:  2412                                  |
|   \\  /    A nd           | Website:  www.openfoam.com                      |
|    \\/     M anipulation  |                                                 |
\*---------------------------------------------------------------------------*/
FoamFile
{
    version     2.0;
    format      ascii;
    arch        "LSB;label=32;scalar=64";
    class       volVectorField;
    location    "0.008";
    object      U;
}
// * * * * * * * * * * * * * * * * * * * * * * * * * * * * * * * * * * * * * //

dimensions      [0 1 -1 0 0 0 0];

internalField   nonuniform List<vector> 
124215
(
(8.49753e-12 8.49753e-12 -500)
(1.44308e-13 8.50498e-12 -500)
(6.08901e-22 8.50498e-12 -500)
(1.47672e-24 8.50498e-12 -500)
(8.89843e-30 8.50498e-12 -500)
(-2.30523e-29 8.50498e-12 -500)
(7.29393e-16 8.50498e-12 -500)
(-6.35483e-14 8.45574e-12 -500)
(-6.01088e-13 7.59964e-12 -500)
(-1.03337e-12 6.15679e-12 -500)
(4.55758e-13 5.83989e-12 -500)
(1.41308e-12 7.38582e-12 -500)
(1.41033e-20 8.50498e-12 -500)
(2.62538e-24 8.50498e-12 -500)
(6.62206e-29 8.50498e-12 -500)
(-8.83271e-30 8.50498e-12 -500)
(-1.47671e-24 8.50498e-12 -500)
(-6.08901e-22 8.50498e-12 -500)
(-7.78913e-15 8.50498e-12 -500)
(-8.63481e-12 8.49753e-12 -500)
(8.50498e-12 1.44757e-13 -500)
(1.36721e-13 1.36721e-13 -500)
(1.41739e-23 1.36721e-13 -500)
(3.98895e-25 1.36721e-13 -500)
(5.11323e-32 1.36721e-13 -500)
(-4.13509e-29 1.36721e-13 -500)
(-2.9197e-24 1.36721e-13 -500)
(-8.08776e-16 1.36658e-13 -500)
(-6.83681e-13 8.05943e-13 -500)
(-3.22863e-13 9.47685e-13 -500)
(4.48578e-13 1.13244e-12 -500)
(4.09753e-13 9.06706e-13 -500)
(4.34648e-23 1.36721e-13 -500)
(1.69504e-24 1.36721e-13 -500)
(2.553e-31 1.36721e-13 -500)
(-3.45245e-32 1.36721e-13 -500)
(-3.98894e-25 1.36721e-13 -500)
(-1.41743e-23 1.36721e-13 -500)
(1.6173e-15 1.36721e-13 -500)
(-8.644e-12 1.44757e-13 -500)
(8.50498e-12 1.07827e-21 -500)
(1.36721e-13 3.67613e-22 -500)
(4.86908e-21 3.54924e-20 -500)
(3.99372e-25 3.54924e-20 -500)
(1.92212e-29 3.54924e-20 -500)
(-4.26929e-29 3.54924e-20 -500)
(-1.35121e-24 3.54924e-20 -500)
(-1.66627e-14 3.55524e-20 -500)
(-4.69466e-13 -3.73723e-14 -500)
(-6.66687e-13 -5.83528e-13 -500)
(5.90261e-13 1.1656e-13 -500)
(1.15784e-12 7.08007e-14 -500)
(6.15874e-22 3.54934e-20 -500)
(5.38264e-25 3.54924e-20 -500)
(8.90281e-30 3.54924e-20 -500)
(-1.92013e-29 3.54924e-20 -500)
(-3.99134e-25 3.54924e-20 -500)
(-4.86908e-21 3.54924e-20 -500)
(1.61729e-15 3.67615e-22 -500)
(-8.644e-12 1.07827e-21 -500)
(8.50498e-12 2.46365e-23 -500)
(1.36721e-13 1.45207e-23 -500)
(4.86908e-21 1.45402e-23 -500)
(3.99372e-25 1.45402e-23 -500)
(1.92197e-29 1.45402e-23 -500)
(-1.35843e-29 1.45402e-23 -500)
(1.61472e-15 1.45404e-23 -500)
(-9.21329e-14 -2.52031e-14 -500)
(-1.27777e-12 -3.14434e-13 -500)
(-1.54337e-13 -1.04387e-12 -500)
(1.18324e-12 -2.1663e-13 -500)
(5.4526e-14 -2.77047e-14 -500)
(-5.8208e-16 -2.03365e-25 -500)
(2.87592e-24 1.45403e-23 -500)
(9.28779e-30 1.45402e-23 -500)
(-1.91936e-29 1.45402e-23 -500)
(-3.99134e-25 1.45402e-23 -500)
(-4.86908e-21 1.45402e-23 -500)
(1.61729e-15 1.45207e-23 -500)
(-8.644e-12 2.46365e-23 -500)
(8.50498e-12 6.03493e-29 -500)
(1.36721e-13 1.27429e-29 -500)
(4.86908e-21 1.31974e-27 -500)
(3.99372e-25 1.31888e-27 -500)
(1.92033e-29 1.31974e-27 -500)
(-3.33183e-29 1.31913e-27 -500)
(3.72554e-15 5.44978e-28 -500)
(-1.9756e-13 -1.75955e-14 -500)
(-2.11796e-12 -1.39979e-13 -500)
(-8.86977e-13 -2.32277e-13 -500)
(1.74488e-12 -6.36187e-13 -500)
(1.31276e-12 -1.10454e-13 -500)
(-2.57189e-17 3.02417e-23 -500)
(1.40439e-24 1.24831e-27 -500)
(2.24574e-31 1.31838e-27 -500)
(-1.91987e-29 1.31858e-27 -500)
(-3.99134e-25 1.31988e-27 -500)
(-4.86908e-21 1.31895e-27 -500)
(1.61729e-15 1.12378e-29 -500)
(-8.644e-12 6.06001e-29 -500)
(8.50498e-12 -1.9786e-27 -500)
(1.36721e-13 9.37694e-28 -500)
(4.86908e-21 -9.30881e-28 -500)
(3.99372e-25 -2.02241e-27 -500)
(1.92156e-29 -1.59643e-27 -500)
(-5.17354e-29 -1.11059e-27 -500)
(6.78351e-16 -7.97129e-28 -500)
(-5.78037e-14 1.28836e-22 -500)
(-1.92103e-12 8.32128e-14 -500)
(-7.48617e-13 2.92525e-13 -500)
(1.44204e-12 -1.6333e-13 -500)
(1.05683e-12 -7.01238e-14 -500)
(1.55666e-14 -7.17971e-23 -500)
(2.91751e-24 -3.17606e-27 -500)
(2.27655e-29 -2.15593e-27 -500)
(-1.91867e-29 -2.30717e-27 -500)
(-3.99134e-25 -2.58166e-28 -500)
(-4.86908e-21 -1.40799e-27 -500)
(1.61729e-15 -5.8302e-28 -500)
(-8.644e-12 -1.97205e-27 -500)
(8.50498e-12 9.07203e-17 -500)
(1.36721e-13 -4.52803e-25 -500)
(4.86908e-21 -4.24443e-23 -500)
(3.99344e-25 2.98014e-16 -500)
(5.27756e-29 3.43887e-15 -500)
(-4.80427e-29 2.49901e-15 -500)
(2.66138e-15 -2.45198e-23 -500)
(-1.2605e-13 4.69171e-24 -500)
(-1.79484e-12 4.73037e-14 -500)
(-1.04438e-12 5.01167e-14 -500)
(1.37106e-12 -7.28591e-13 -500)
(1.32731e-12 -1.32343e-13 -500)
(1.63586e-15 -1.69519e-23 -500)
(3.65946e-24 -1.74343e-22 -500)
(4.75033e-29 -1.00671e-22 -500)
(-2.98359e-30 1.88074e-15 -500)
(-3.99134e-25 1.64544e-15 -500)
(-4.86908e-21 -6.82963e-23 -500)
(1.61729e-15 -7.55597e-23 -500)
(-8.644e-12 7.79571e-23 -500)
(8.46722e-12 -5.65391e-14 -500)
(1.3669e-13 5.41109e-16 -500)
(7.98261e-21 4.04671e-15 -500)
(-7.87167e-15 -6.44993e-14 -500)
(-1.21772e-15 -1.36398e-13 -500)
(-5.21098e-15 -1.00648e-13 -500)
(4.09667e-19 2.42874e-15 -500)
(-8.00417e-15 2.7244e-15 -500)
(-1.73957e-12 6.97631e-14 -500)
(-1.46014e-12 3.94628e-13 -500)
(1.12712e-12 -1.24612e-13 -500)
(2.17566e-12 -4.10912e-14 -500)
(-1.43729e-17 2.87045e-15 -500)
(-1.19192e-16 -3.90899e-15 -500)
(5.62096e-21 1.64463e-15 -500)
(-3.09521e-15 -8.7937e-14 -500)
(2.06905e-14 -2.40531e-13 -500)
(2.12018e-14 -5.17423e-14 -500)
(9.5912e-16 1.2004e-15 -500)
(-8.64039e-12 -5.07558e-14 -500)
(7.67014e-12 -7.08489e-13 -500)
(8.12766e-13 -4.8372e-13 -500)
(-1.3507e-13 -1.89882e-13 -500)
(-1.86671e-13 -1.37639e-12 -500)
(8.20523e-15 -1.4232e-12 -500)
(-5.10563e-14 -1.14955e-12 -500)
(5.40412e-14 -1.78413e-12 -500)
(-9.40601e-15 -4.64131e-13 -500)
(-1.15351e-12 -1.64209e-12 -500)
(-1.07821e-12 -1.23101e-13 -500)
(8.28038e-13 6.82707e-13 -500)
(1.44456e-12 -1.3388e-12 -500)
(-2.92252e-14 -3.88408e-13 -500)
(-2.97068e-13 -1.66729e-12 -500)
(-3.84906e-14 -1.77336e-12 -500)
(-1.0681e-13 -2.25043e-12 -500)
(2.65497e-13 -2.79634e-12 -500)
(3.04081e-13 -8.49507e-13 -500)
(-2.57231e-13 -6.48388e-13 -500)
(-8.13393e-12 -2.12244e-12 -500)
(5.9356e-12 -1.56411e-12 -500)
(1.38832e-12 -1.02877e-12 -500)
(-6.76395e-13 -3.90949e-13 -500)
(-9.70359e-13 -5.98106e-13 -500)
(2.587e-14 -1.31173e-13 -500)
(-1.17668e-13 -1.90726e-12 -500)
(4.78684e-13 -7.29726e-13 -500)
(-2.83446e-13 -5.76105e-13 -500)
(-8.47219e-13 -2.05043e-13 -500)
(9.985e-13 3.46724e-13 -500)
(-6.53688e-14 -1.0612e-14 -500)
(2.05267e-13 -1.18417e-12 -500)
(2.04364e-13 -1.02393e-12 -500)
(-1.06047e-12 -6.46945e-13 -500)
(-5.33974e-13 -2.02024e-13 -500)
(-7.61463e-13 -7.63373e-13 -500)
(1.00889e-12 -1.29231e-12 -500)
(1.44382e-12 -2.1682e-13 -500)
(-1.17454e-12 -8.56976e-13 -500)
(-5.44148e-12 -1.0673e-12 -500)
(4.94567e-12 5.21296e-13 -500)
(1.97001e-12 4.44528e-13 -500)
(5.30729e-13 2.94701e-13 -500)
(1.58734e-13 1.0946e-12 -500)
(-1.36274e-12 1.13749e-12 -500)
(-3.74169e-13 1.18404e-12 -500)
(1.14515e-12 1.31793e-12 -500)
(9.79938e-14 5.80638e-13 -500)
(-2.14614e-13 1.21703e-12 -500)
(-7.75114e-13 -1.15049e-13 -500)
(-5.1239e-13 -2.97642e-13 -500)
(3.4815e-13 1.23018e-12 -500)
(7.60708e-13 6.08116e-13 -500)
(8.57167e-13 1.2171e-12 -500)
(-3.86703e-13 1.51311e-12 -500)
(-9.53498e-13 1.8028e-12 -500)
(6.97371e-13 2.19766e-12 -500)
(3.80591e-13 1.01921e-12 -500)
(-1.83159e-12 6.57006e-13 -500)
(-5.43774e-12 1.55419e-12 -500)
(7.25182e-12 2.15747e-12 -500)
(9.69586e-13 1.29895e-12 -500)
(6.75087e-14 2.86621e-13 -500)
(2.85498e-14 6.52731e-13 -500)
(-2.78646e-13 4.04829e-14 -500)
(-7.42468e-14 2.71168e-12 -500)
(2.29177e-13 5.28627e-13 -500)
(2.18489e-14 7.85347e-13 -500)
(-1.66589e-12 4.10212e-13 -500)
(-1.11309e-12 1.04167e-13 -500)
(1.1936e-12 4.94236e-13 -500)
(1.16478e-12 1.56421e-12 -500)
(1.15658e-13 1.19864e-12 -500)
(1.72453e-13 9.92727e-13 -500)
(4.48657e-14 -7.29829e-14 -500)
(-3.32177e-13 1.23748e-12 -500)
(6.9124e-14 1.70607e-12 -500)
(1.06504e-13 2.19545e-13 -500)
(-2.39861e-13 1.14422e-12 -500)
(-8.04913e-12 1.70022e-12 -500)
(8.50498e-12 7.63232e-20 -500)
(1.36721e-13 1.41717e-15 -500)
(4.86691e-21 3.52918e-16 -500)
(3.02712e-24 5.40512e-20 -500)
(-1.64621e-15 6.83671e-15 -500)
(5.01047e-25 5.11452e-20 -500)
(-3.5497e-24 3.6842e-15 -500)
(-7.82702e-16 9.27451e-22 -500)
(-5.76921e-13 1.01461e-14 -500)
(-8.28134e-13 1.38419e-13 -500)
(7.1623e-13 4.40922e-13 -500)
(8.97287e-13 1.00342e-13 -500)
(1.72883e-14 9.03759e-21 -500)
(2.19674e-16 1.7556e-14 -500)
(-1.53739e-24 -1.01242e-14 -500)
(8.90863e-25 -6.75156e-16 -500)
(2.25687e-24 3.03284e-20 -500)
(-4.8695e-21 4.1693e-15 -500)
(1.61729e-15 1.41718e-15 -500)
(-8.644e-12 -3.75859e-16 -500)
(8.50498e-12 1.24123e-22 -500)
(1.36721e-13 3.11165e-23 -500)
(4.86908e-21 9.20922e-23 -500)
(3.99432e-25 8.89033e-23 -500)
(4.23768e-29 2.37596e-23 -500)
(-4.16926e-29 3.44908e-23 -500)
(-7.1672e-25 3.24454e-23 -500)
(2.53579e-15 5.65623e-23 -500)
(-1.96302e-12 -1.26316e-13 -500)
(-7.77801e-13 -4.79281e-13 -500)
(1.58409e-12 4.20282e-13 -500)
(8.91107e-13 7.13116e-14 -500)
(1.51116e-14 6.69872e-23 -500)
(1.79218e-24 5.56153e-23 -500)
(-1.54465e-29 3.90526e-23 -500)
(-1.90273e-29 6.47874e-23 -500)
(-3.99131e-25 5.33093e-23 -500)
(-4.86908e-21 3.64486e-23 -500)
(1.61729e-15 2.57418e-23 -500)
(-8.644e-12 1.14065e-22 -500)
(8.50498e-12 2.70355e-27 -500)
(1.36721e-13 1.62955e-28 -500)
(4.86908e-21 1.95448e-27 -500)
(3.99372e-25 2.3085e-27 -500)
(1.92253e-29 2.2764e-29 -500)
(-6.05746e-29 1.89538e-27 -500)
(1.93423e-15 -3.79917e-28 -500)
(-8.17889e-14 8.42226e-15 -500)
(-1.44331e-12 1.45279e-13 -500)
(-3.31931e-13 6.35064e-13 -500)
(1.08499e-12 1.95314e-13 -500)
(3.49288e-13 1.08477e-13 -500)
(2.29095e-15 2.09953e-23 -500)
(2.50664e-24 3.43112e-28 -500)
(7.90804e-30 -2.67691e-28 -500)
(-1.91913e-29 8.90208e-28 -500)
(-3.99134e-25 3.82964e-28 -500)
(-4.86908e-21 1.60202e-27 -500)
(1.61729e-15 5.66549e-28 -500)
(-8.644e-12 1.68431e-27 -500)
(8.50498e-12 -5.80737e-29 -500)
(1.36721e-13 -1.09314e-29 -500)
(4.86908e-21 -1.31737e-27 -500)
(3.99372e-25 -1.31758e-27 -500)
(1.9212e-29 -1.31877e-27 -500)
(-6.06091e-29 -1.31851e-27 -500)
(-3.83844e-24 -1.31199e-27 -500)
(-5.53026e-15 2.44369e-16 -500)
(-6.79791e-13 1.52131e-13 -500)
(-6.23787e-13 6.99634e-13 -500)
(7.28799e-13 2.73392e-13 -500)
(6.63105e-13 9.56347e-14 -500)
(1.14849e-15 1.47282e-23 -500)
(7.94694e-25 -1.09824e-27 -500)
(1.18636e-31 -1.31842e-27 -500)
(-1.92005e-29 -1.31792e-27 -500)
(-3.99134e-25 -1.3184e-27 -500)
(-4.86908e-21 -1.31872e-27 -500)
(1.61729e-15 -1.0951e-29 -500)
(-8.644e-12 -5.82332e-29 -500)
(8.50498e-12 -2.46365e-23 -500)
(1.36721e-13 -1.45206e-23 -500)
(4.86908e-21 -1.45376e-23 -500)
(3.99372e-25 -1.45376e-23 -500)
(1.92165e-29 -1.45376e-23 -500)
(-6.04449e-29 -1.45376e-23 -500)
(-2.23556e-24 -1.45374e-23 -500)
(3.78311e-15 5.72673e-23 -500)
(-4.87417e-13 7.03453e-14 -500)
(-5.52888e-14 3.69883e-13 -500)
(4.63058e-13 -3.09491e-13 -500)
(-2.04421e-13 -9.45592e-14 -500)
(6.01827e-15 -8.48013e-23 -500)
(1.64887e-24 -1.45376e-23 -500)
(2.26539e-31 -1.45376e-23 -500)
(-1.91993e-29 -1.45376e-23 -500)
(-3.99134e-25 -1.45376e-23 -500)
(-4.86908e-21 -1.45376e-23 -500)
(1.61729e-15 -1.45206e-23 -500)
(-8.644e-12 -2.46365e-23 -500)
(8.50498e-12 -1.07828e-21 -500)
(1.36721e-13 -3.67616e-22 -500)
(4.86292e-21 -3.54924e-20 -500)
(3.99371e-25 -3.54924e-20 -500)
(1.91947e-29 -3.54924e-20 -500)
(-3.43466e-29 -3.54924e-20 -500)
(-1.61194e-24 -3.54924e-20 -500)
(4.10096e-15 -3.55177e-20 -500)
(-2.42127e-13 1.20685e-13 -500)
(-8.62111e-13 4.71348e-13 -500)
(1.93755e-13 -5.68269e-13 -500)
(1.21643e-12 -1.25277e-13 -500)
(2.51687e-15 -3.55006e-20 -500)
(3.60592e-24 -3.54924e-20 -500)
(6.559e-31 -3.54924e-20 -500)
(-1.91655e-29 -3.54924e-20 -500)
(-3.99134e-25 -3.54924e-20 -500)
(-4.86292e-21 -3.54924e-20 -500)
(1.61729e-15 -3.67619e-22 -500)
(-8.644e-12 -1.07828e-21 -500)
(8.50498e-12 -8.32882e-15 -500)
(1.3672e-13 1.61734e-15 -500)
(1.62107e-23 1.6173e-15 -500)
(3.99442e-25 1.6173e-15 -500)
(7.3456e-32 1.6173e-15 -500)
(-3.25972e-29 1.6173e-15 -500)
(-3.78099e-24 1.6173e-15 -500)
(2.1495e-14 -8.18173e-15 -500)
(3.41587e-13 -2.40638e-13 -500)
(-6.04086e-13 -1.48286e-12 -500)
(-3.08193e-14 -2.26985e-13 -500)
(8.08778e-13 4.59242e-14 -500)
(-1.24672e-19 1.6173e-15 -500)
(2.92044e-24 1.6173e-15 -500)
(3.44605e-29 1.6173e-15 -500)
(-5.81359e-32 1.6173e-15 -500)
(-3.99441e-25 1.6173e-15 -500)
(-1.6211e-23 1.6173e-15 -500)
(1.61807e-15 1.61734e-15 -500)
(-8.644e-12 -8.32882e-15 -500)
(8.49753e-12 -8.63479e-12 -500)
(1.44757e-13 -8.644e-12 -500)
(6.25955e-22 -8.644e-12 -500)
(1.53821e-24 -8.644e-12 -500)
(9.1496e-30 -8.644e-12 -500)
(-1.98865e-31 -8.644e-12 -500)
(3.66877e-15 -8.644e-12 -500)
(-2.27879e-13 -8.62474e-12 -500)
(-1.96936e-12 -8.29221e-12 -500)
(-1.71281e-13 -6.38778e-12 -500)
(1.44434e-12 -6.8127e-12 -500)
(3.22664e-13 -8.28032e-12 -500)
(-7.7245e-15 -8.644e-12 -500)
(1.89913e-24 -8.644e-12 -500)
(2.53593e-29 -8.644e-12 -500)
(-9.08119e-30 -8.644e-12 -500)
(-1.53819e-24 -8.644e-12 -500)
(-6.25955e-22 -8.644e-12 -500)
(-8.32879e-15 -8.644e-12 -500)
(-8.63479e-12 -8.63479e-12 -500)
(5.01485e-12 5.01485e-12 -500)
(-4.37032e-14 5.0114e-12 -500)
(9.54724e-22 5.0114e-12 -500)
(7.19419e-25 5.0114e-12 -500)
(1.42428e-29 5.0114e-12 -500)
(-3.567e-29 5.0114e-12 -500)
(4.04088e-15 5.0114e-12 -500)
(-1.01931e-13 4.96046e-12 -500)
(-9.63759e-13 4.36303e-12 -500)
(-8.73459e-13 3.38499e-12 -500)
(6.63606e-13 3.66759e-12 -500)
(1.01572e-12 4.66694e-12 -500)
(2.2983e-20 5.0114e-12 -500)
(1.5438e-24 5.0114e-12 -500)
(1.07738e-28 5.0114e-12 -500)
(-1.42211e-29 5.0114e-12 -500)
(-7.19393e-25 5.0114e-12 -500)
(-9.54724e-22 5.0114e-12 -500)
(-9.3381e-16 5.0114e-12 -500)
(-4.97775e-12 5.01485e-12 -500)
(5.0114e-12 -4.37357e-14 -500)
(-4.15576e-14 -4.15577e-14 -500)
(1.56626e-23 -4.15576e-14 -500)
(5.90277e-25 -4.15576e-14 -500)
(6.78239e-32 -4.15576e-14 -500)
(-6.56914e-29 -4.15576e-14 -500)
(-3.23566e-24 -4.15576e-14 -500)
(-3.19244e-15 -4.15078e-14 -500)
(-9.31785e-13 3.98641e-13 -500)
(-4.68358e-13 6.9579e-13 -500)
(5.71181e-13 4.35574e-13 -500)
(5.92074e-13 1.52943e-13 -500)
(3.4649e-23 -4.15576e-14 -500)
(1.38745e-24 -4.15576e-14 -500)
(2.03122e-31 -4.15576e-14 -500)
(-4.45276e-32 -4.15576e-14 -500)
(-5.90276e-25 -4.15576e-14 -500)
(-1.56629e-23 -4.15576e-14 -500)
(-1.75888e-15 -4.15577e-14 -500)
(-4.97378e-12 -4.37357e-14 -500)
(5.0114e-12 8.11935e-22 -500)
(-4.15576e-14 3.79241e-22 -500)
(7.747e-21 5.65704e-20 -500)
(5.91036e-25 5.65704e-20 -500)
(3.05906e-29 5.65704e-20 -500)
(-9.03096e-29 5.65704e-20 -500)
(-4.01932e-24 5.65704e-20 -500)
(-3.04578e-16 5.67012e-20 -500)
(-5.52303e-13 -4.69878e-14 -500)
(-5.86808e-13 -3.43057e-13 -500)
(5.0528e-13 -1.90112e-13 -500)
(5.78669e-13 -2.32125e-14 -500)
(9.31376e-22 5.65809e-20 -500)
(-1.47408e-25 5.65704e-20 -500)
(1.40711e-29 5.65704e-20 -500)
(-3.05709e-29 5.65704e-20 -500)
(-5.90659e-25 5.65704e-20 -500)
(-7.747e-21 5.65704e-20 -500)
(-1.75889e-15 3.79245e-22 -500)
(-4.97378e-12 8.11935e-22 -500)
(5.0114e-12 -1.13191e-23 -500)
(-4.15576e-14 2.763e-23 -500)
(7.747e-21 2.76614e-23 -500)
(5.91036e-25 2.76614e-23 -500)
(3.06016e-29 2.76614e-23 -500)
(-2.14591e-29 2.76614e-23 -500)
(-4.71444e-25 2.76618e-23 -500)
(1.39537e-14 7.46266e-23 -500)
(-1.51594e-12 -7.49014e-14 -500)
(-7.65768e-13 -7.4127e-13 -500)
(1.11852e-12 -2.66288e-13 -500)
(9.99028e-13 -8.89056e-14 -500)
(9.87277e-22 7.34929e-24 -500)
(1.71865e-24 2.76614e-23 -500)
(1.43208e-29 2.76614e-23 -500)
(-3.0567e-29 2.76614e-23 -500)
(-5.90659e-25 2.76614e-23 -500)
(-7.747e-21 2.76614e-23 -500)
(-1.75889e-15 2.763e-23 -500)
(-4.97378e-12 -1.13191e-23 -500)
(5.0114e-12 6.07284e-29 -500)
(-4.15576e-14 1.65842e-29 -500)
(7.747e-21 2.10867e-27 -500)
(5.91036e-25 2.10858e-27 -500)
(3.05984e-29 2.10924e-27 -500)
(-5.21213e-29 2.10919e-27 -500)
(-2.07236e-24 8.77726e-28 -500)
(2.49072e-14 -1.25971e-22 -500)
(-1.80618e-12 1.33935e-13 -500)
(-9.73436e-13 2.78612e-13 -500)
(1.45309e-12 -1.11923e-13 -500)
(1.12293e-12 -3.16699e-14 -500)
(-5.01489e-17 4.15847e-24 -500)
(-1.22086e-25 1.98309e-27 -500)
(-3.55918e-32 2.1082e-27 -500)
(-3.05736e-29 2.10701e-27 -500)
(-5.90659e-25 2.10958e-27 -500)
(-7.747e-21 2.10827e-27 -500)
(-1.75889e-15 1.49386e-29 -500)
(-4.97378e-12 6.08329e-29 -500)
(5.0114e-12 -3.11369e-27 -500)
(-4.15576e-14 -2.93138e-28 -500)
(7.747e-21 -1.95815e-27 -500)
(5.91036e-25 -3.1858e-27 -500)
(3.06036e-29 -2.70845e-27 -500)
(-8.21999e-29 -1.72433e-27 -500)
(-3.65207e-24 -2.20437e-27 -500)
(2.29925e-14 5.65815e-23 -500)
(-6.90692e-13 2.38041e-13 -500)
(-8.74567e-13 1.0888e-12 -500)
(6.95475e-13 -2.07966e-13 -500)
(1.08319e-12 -5.72876e-14 -500)
(2.78138e-21 -1.16567e-22 -500)
(1.98441e-24 -5.10672e-27 -500)
(3.57974e-29 -3.38981e-27 -500)
(-3.05594e-29 -3.66946e-27 -500)
(-5.90659e-25 -3.82443e-28 -500)
(-7.747e-21 -2.39932e-27 -500)
(-1.75889e-15 -9.25587e-28 -500)
(-4.97378e-12 -3.1112e-27 -500)
(5.0114e-12 3.26235e-16 -500)
(-4.15576e-14 -4.20569e-23 -500)
(7.747e-21 -5.07229e-23 -500)
(5.90993e-25 -4.22613e-23 -500)
(8.42736e-29 -2.34764e-23 -500)
(-7.63579e-29 -5.2262e-24 -500)
(-1.58718e-24 -4.52212e-23 -500)
(2.08655e-14 6.11671e-24 -500)
(-2.76343e-14 -3.94291e-14 -500)
(-9.83305e-13 -7.22285e-14 -500)
(2.55273e-13 1.25667e-13 -500)
(1.4092e-12 -1.45498e-14 -500)
(2.23132e-20 -4.42693e-23 -500)
(5.04299e-24 -1.32493e-22 -500)
(9.67155e-29 -6.4807e-23 -500)
(-4.89225e-30 -1.3451e-22 -500)
(-5.90659e-25 -5.4533e-24 -500)
(-7.747e-21 -6.35555e-23 -500)
(-1.75889e-15 -1.19056e-22 -500)
(-4.97378e-12 1.48462e-20 -500)
(5.00311e-12 -2.46643e-14 -500)
(-4.15327e-14 -8.45179e-16 -500)
(1.29447e-20 6.52079e-15 -500)
(-2.58481e-22 8.76831e-15 -500)
(1.16638e-19 2.25634e-14 -500)
(-1.81694e-20 1.53375e-14 -500)
(-3.69099e-24 3.69002e-15 -500)
(-5.10709e-18 5.18395e-15 -500)
(-9.70678e-13 -9.18757e-14 -500)
(-6.78644e-13 -4.7351e-13 -500)
(7.62603e-13 3.30439e-13 -500)
(9.95515e-13 8.65871e-14 -500)
(-1.35023e-16 5.09824e-15 -500)
(-1.77878e-19 4.91705e-15 -500)
(9.11672e-21 6.19689e-15 -500)
(3.91376e-20 1.3611e-14 -500)
(7.03466e-21 2.27614e-14 -500)
(-1.24788e-20 2.24761e-14 -500)
(-1.73912e-15 4.52113e-16 -500)
(-4.97134e-12 -1.07856e-14 -500)
(4.61146e-12 -1.00883e-12 -500)
(1.57192e-13 -1.19366e-12 -500)
(1.61978e-14 -6.60182e-13 -500)
(-1.35046e-14 -1.16773e-12 -500)
(1.21186e-13 -1.03429e-12 -500)
(-4.52203e-14 -2.86834e-13 -500)
(-9.8847e-14 -1.44655e-12 -500)
(1.07237e-14 -8.94544e-13 -500)
(-6.57049e-13 -5.51406e-13 -500)
(-5.01564e-13 -1.66233e-14 -500)
(6.41729e-13 4.19103e-15 -500)
(4.93829e-13 -6.79186e-13 -500)
(-1.64731e-14 -1.13825e-12 -500)
(-1.3306e-14 -1.14304e-12 -500)
(4.15398e-14 -1.1913e-12 -500)
(5.51386e-14 -1.00048e-12 -500)
(8.46741e-14 -8.29195e-13 -500)
(-1.98299e-14 -1.99852e-14 -500)
(-1.16707e-13 -8.74126e-13 -500)
(-4.68214e-12 -5.19186e-13 -500)
(3.35283e-12 -6.62635e-13 -500)
(6.40045e-13 -7.91649e-13 -500)
(-2.15889e-13 -7.78702e-13 -500)
(-3.62891e-13 -1.92759e-12 -500)
(6.31295e-13 -6.03961e-13 -500)
(-2.30803e-13 -1.15535e-12 -500)
(-2.02209e-13 -6.83738e-13 -500)
(4.8961e-13 -1.35629e-12 -500)
(-1.40229e-13 -5.17927e-13 -500)
(-3.47653e-14 -4.81751e-14 -500)
(-1.34805e-13 -6.33393e-13 -500)
(-1.29533e-13 -9.03882e-13 -500)
(5.44325e-15 -5.49026e-13 -500)
(-2.02109e-13 -4.79051e-13 -500)
(1.74839e-14 -6.3943e-13 -500)
(2.3564e-13 -6.26641e-13 -500)
(7.3772e-13 -5.13889e-13 -500)
(1.44355e-13 -1.13478e-13 -500)
(-6.23804e-13 -2.75092e-13 -500)
(-3.86955e-12 1.23934e-13 -500)
(3.68784e-12 7.21008e-13 -500)
(1.76279e-13 7.95664e-13 -500)
(-1.15302e-12 6.12467e-13 -500)
(2.59336e-13 1.17605e-12 -500)
(6.07994e-13 8.28767e-13 -500)
(-9.62598e-15 4.48117e-13 -500)
(-1.16576e-14 1.11508e-12 -500)
(1.39653e-13 6.39543e-13 -500)
(4.5281e-13 5.7854e-13 -500)
(-6.1314e-13 1.19566e-14 -500)
(-4.12723e-13 -1.43614e-13 -500)
(7.25913e-13 8.61025e-13 -500)
(5.3748e-13 8.15058e-13 -500)
(-6.43885e-14 9.884e-13 -500)
(-5.43713e-14 1.05932e-12 -500)
(1.82768e-13 1.00427e-12 -500)
(4.34945e-13 7.98396e-13 -500)
(1.58714e-13 1.55809e-13 -500)
(3.91451e-14 6.16319e-13 -500)
(-4.40377e-12 5.20418e-13 -500)
(4.7856e-12 6.15565e-13 -500)
(-6.71508e-14 8.05504e-13 -500)
(-2.19618e-13 1.08512e-12 -500)
(6.56393e-14 2.69778e-12 -500)
(1.06695e-13 5.74717e-13 -500)
(-5.13573e-15 1.61337e-12 -500)
(-4.73808e-14 5.76725e-13 -500)
(-2.20721e-14 1.8774e-12 -500)
(-7.22793e-13 5.15006e-13 -500)
(-8.38544e-13 -4.28044e-13 -500)
(7.30501e-13 7.23328e-13 -500)
(9.94293e-13 1.25133e-12 -500)
(1.53886e-13 5.94524e-13 -500)
(-6.69056e-14 4.77737e-13 -500)
(1.19039e-14 1.13238e-12 -500)
(1.08843e-13 7.83062e-13 -500)
(-4.91079e-15 7.57218e-13 -500)
(3.62689e-15 2.34613e-13 -500)
(6.01008e-14 3.98606e-13 -500)
(-4.80502e-12 -2.8219e-13 -500)
(5.0114e-12 1.19202e-19 -500)
(-4.15576e-14 7.46486e-21 -500)
(7.74488e-21 7.08488e-20 -500)
(6.54849e-24 -2.1404e-19 -500)
(1.88347e-25 -8.90017e-22 -500)
(-3.49704e-24 7.47507e-20 -500)
(-1.21425e-24 8.04052e-21 -500)
(1.68324e-15 3.91808e-22 -500)
(-1.71259e-12 1.10832e-13 -500)
(-5.90882e-13 3.17179e-13 -500)
(1.18925e-12 2.08235e-13 -500)
(6.4577e-13 4.81645e-14 -500)
(2.22675e-20 1.36762e-20 -500)
(3.26159e-24 7.80654e-21 -500)
(-3.10988e-24 4.54311e-22 -500)
(8.0797e-25 -2.38176e-15 -500)
(8.2914e-25 3.95516e-20 -500)
(-7.74893e-21 6.15168e-20 -500)
(-1.75889e-15 1.76381e-20 -500)
(-4.97378e-12 -1.00946e-15 -500)
(5.0114e-12 5.37083e-23 -500)
(-4.15576e-14 5.4159e-23 -500)
(7.747e-21 8.39835e-23 -500)
(5.91133e-25 1.08309e-22 -500)
(4.47263e-29 -6.1524e-23 -500)
(-6.70373e-29 7.16224e-23 -500)
(-6.73181e-25 5.35628e-23 -500)
(1.7013e-15 5.85106e-23 -500)
(-2.82036e-13 6.92825e-14 -500)
(-5.67617e-13 5.09912e-13 -500)
(6.07962e-13 -3.31081e-13 -500)
(7.54978e-13 -8.49916e-14 -500)
(-5.58745e-17 7.00684e-23 -500)
(1.98148e-25 2.89525e-23 -500)
(-4.72161e-29 2.95195e-23 -500)
(-3.04169e-29 4.11128e-23 -500)
(-5.90654e-25 5.51373e-23 -500)
(-7.747e-21 6.50638e-23 -500)
(-1.75889e-15 3.71624e-23 -500)
(-4.97378e-12 6.27765e-23 -500)
(5.0114e-12 4.17114e-27 -500)
(-4.15576e-14 4.39534e-28 -500)
(7.747e-21 3.08087e-27 -500)
(5.91036e-25 3.66519e-27 -500)
(3.05917e-29 -3.37604e-29 -500)
(-9.633e-29 3.14501e-27 -500)
(-3.95472e-24 -4.15752e-28 -500)
(1.21634e-14 -1.08995e-22 -500)
(-9.30791e-13 -1.13507e-13 -500)
(-1.0303e-12 -3.58555e-13 -500)
(8.15286e-13 -1.0699e-13 -500)
(1.5273e-12 -1.3122e-14 -500)
(-5.44187e-16 -6.13528e-24 -500)
(8.4824e-25 4.88317e-28 -500)
(1.21103e-29 2.45138e-29 -500)
(-3.05662e-29 1.48709e-27 -500)
(-5.90659e-25 5.9067e-28 -500)
(-7.747e-21 2.67328e-27 -500)
(-1.75889e-15 1.07657e-27 -500)
(-4.97378e-12 2.55023e-27 -500)
(5.0114e-12 -6.24866e-29 -500)
(-4.15576e-14 -1.41547e-29 -500)
(7.747e-21 -2.10549e-27 -500)
(5.91036e-25 -2.10528e-27 -500)
(3.05876e-29 -2.10865e-27 -500)
(-9.6402e-29 -2.10579e-27 -500)
(-4.92086e-24 -2.10402e-27 -500)
(6.81419e-15 1.9901e-24 -500)
(-1.26919e-12 2.05192e-15 -500)
(-8.32817e-13 7.49326e-14 -500)
(9.66325e-13 1.38335e-13 -500)
(1.17183e-12 -1.94861e-15 -500)
(-3.54969e-15 -1.04634e-23 -500)
(6.72465e-25 -1.76823e-27 -500)
(1.15875e-31 -2.10677e-27 -500)
(-3.05704e-29 -2.10637e-27 -500)
(-5.90659e-25 -2.10658e-27 -500)
(-7.747e-21 -2.10608e-27 -500)
(-1.75889e-15 -1.43771e-29 -500)
(-4.97378e-12 -6.23203e-29 -500)
(5.0114e-12 1.13191e-23 -500)
(-4.15576e-14 -2.763e-23 -500)
(7.747e-21 -2.76572e-23 -500)
(5.91036e-25 -2.76572e-23 -500)
(3.05916e-29 -2.76572e-23 -500)
(-9.62486e-29 -2.76572e-23 -500)
(-3.47876e-24 -2.76569e-23 -500)
(6.33933e-15 6.53811e-23 -500)
(-1.09021e-12 3.33328e-14 -500)
(-9.94268e-13 2.18086e-13 -500)
(7.65343e-13 -2.29656e-14 -500)
(1.39167e-12 7.20128e-16 -500)
(-3.29546e-16 -6.55051e-23 -500)
(-1.27253e-26 -2.76572e-23 -500)
(-2.6612e-32 -2.76572e-23 -500)
(-3.05741e-29 -2.76572e-23 -500)
(-5.90659e-25 -2.76572e-23 -500)
(-7.747e-21 -2.76572e-23 -500)
(-1.75889e-15 -2.763e-23 -500)
(-4.97378e-12 1.13191e-23 -500)
(5.0114e-12 -8.11957e-22 -500)
(-4.15576e-14 -3.79244e-22 -500)
(7.73713e-21 -5.65704e-20 -500)
(5.91036e-25 -5.65704e-20 -500)
(3.05589e-29 -5.65704e-20 -500)
(-5.46529e-29 -5.65704e-20 -500)
(-2.00077e-24 -5.65704e-20 -500)
(4.11611e-15 -5.66542e-20 -500)
(-9.36239e-13 -7.03316e-15 -500)
(-8.31066e-13 -1.5798e-13 -500)
(7.63958e-13 -5.24024e-16 -500)
(1.04744e-12 8.42375e-14 -500)
(5.88277e-23 -5.66278e-20 -500)
(2.63145e-24 -5.65704e-20 -500)
(5.22175e-31 -5.65704e-20 -500)
(-3.05249e-29 -5.65704e-20 -500)
(-5.90659e-25 -5.65704e-20 -500)
(-7.73713e-21 -5.65704e-20 -500)
(-1.75889e-15 -3.79248e-22 -500)
(-4.97378e-12 -8.11957e-22 -500)
(5.0114e-12 -9.33047e-16 -500)
(-4.15591e-14 -1.75884e-15 -500)
(1.8929e-23 -1.7589e-15 -500)
(5.91095e-25 -1.7589e-15 -500)
(1.09974e-31 -1.7589e-15 -500)
(-5.16449e-29 -1.7589e-15 -500)
(-4.62406e-24 -1.7589e-15 -500)
(9.64766e-15 -1.75245e-15 -500)
(-1.28553e-12 3.12619e-14 -500)
(-8.50247e-13 -1.55618e-13 -500)
(7.23865e-13 -2.11681e-13 -500)
(9.53961e-13 -2.5228e-14 -500)
(-5.15691e-18 -1.7589e-15 -500)
(2.80347e-24 -1.7589e-15 -500)
(5.45549e-29 -1.7589e-15 -500)
(-8.48872e-32 -1.7589e-15 -500)
(-5.91094e-25 -1.7589e-15 -500)
(-1.89294e-23 -1.7589e-15 -500)
(-1.75739e-15 -1.75884e-15 -500)
(-4.97378e-12 -9.33047e-16 -500)
(5.01485e-12 -4.97775e-12 -500)
(-4.37357e-14 -4.97378e-12 -500)
(9.56704e-22 -4.97378e-12 -500)
(7.20141e-25 -4.97378e-12 -500)
(1.42678e-29 -4.97378e-12 -500)
(-2.54011e-31 -4.97378e-12 -500)
(1.56206e-19 -4.97378e-12 -500)
(7.63857e-15 -4.96e-12 -500)
(-3.33907e-13 -4.73166e-12 -500)
(-4.32042e-13 -3.55791e-12 -500)
(5.6587e-13 -3.36502e-12 -500)
(7.41331e-13 -4.76322e-12 -500)
(3.98594e-21 -4.97378e-12 -500)
(2.37114e-24 -4.97378e-12 -500)
(4.03151e-29 -4.97378e-12 -500)
(-1.42442e-29 -4.97378e-12 -500)
(-7.20115e-25 -4.97378e-12 -500)
(-9.56704e-22 -4.97378e-12 -500)
(-9.33013e-16 -4.97378e-12 -500)
(-4.97775e-12 -4.97775e-12 -500)
(5.54199e-12 5.54199e-12 -500)
(4.71358e-15 5.54274e-12 -500)
(2.27922e-24 5.54274e-12 -500)
(7.19185e-25 5.54274e-12 -500)
(2.16398e-31 5.54274e-12 -500)
(-3.2312e-31 5.54274e-12 -500)
(1.95513e-16 5.54274e-12 -500)
(-5.35568e-16 5.54365e-12 -500)
(3.87428e-14 5.34694e-12 -500)
(-1.24756e-12 4.45385e-12 -500)
(1.16418e-13 2.82113e-12 -500)
(1.65226e-12 4.53732e-12 -500)
(2.58697e-23 5.54274e-12 -500)
(1.0575e-24 5.54274e-12 -500)
(1.53859e-31 5.54274e-12 -500)
(-1.9937e-31 5.54274e-12 -500)
(-7.19185e-25 5.54274e-12 -500)
(-2.27922e-24 5.54274e-12 -500)
(-2.13163e-15 5.54274e-12 -500)
(-5.54654e-12 5.54199e-12 -500)
(5.54274e-12 4.71279e-15 -500)
(4.56461e-15 4.56462e-15 -500)
(1.56625e-23 4.56462e-15 -500)
(5.90294e-25 4.56462e-15 -500)
(7.71509e-32 4.56462e-15 -500)
(-7.23819e-32 4.56462e-15 -500)
(-6.37057e-25 4.56462e-15 -500)
(-2.4649e-15 4.56462e-15 -500)
(-9.86876e-13 -2.63222e-13 -500)
(-8.26537e-13 -1.03336e-12 -500)
(7.54836e-13 6.56933e-13 -500)
(1.08488e-12 5.2719e-13 -500)
(7.14753e-23 4.56462e-15 -500)
(3.48272e-24 4.56462e-15 -500)
(5.67309e-31 4.56462e-15 -500)
(-3.59469e-32 4.56462e-15 -500)
(-5.90293e-25 4.56462e-15 -500)
(-1.56625e-23 4.56462e-15 -500)
(-3.04711e-15 4.56462e-15 -500)
(-5.54726e-12 4.71279e-15 -500)
(5.54274e-12 -1.42533e-22 -500)
(4.56461e-15 3.79247e-22 -500)
(1.5663e-23 3.79265e-22 -500)
(5.90293e-25 3.79265e-22 -500)
(6.70397e-32 3.79265e-22 -500)
(-4.17819e-31 3.79265e-22 -500)
(-3.66342e-24 3.79265e-22 -500)
(3.98631e-15 3.77474e-22 -500)
(-1.58194e-12 -6.3181e-14 -500)
(-9.67873e-13 -1.98903e-13 -500)
(1.05122e-12 -3.02751e-13 -500)
(1.22545e-12 -2.54114e-14 -500)
(-4.11736e-22 4.00803e-22 -500)
(1.44606e-24 3.79265e-22 -500)
(2.74561e-31 3.79265e-22 -500)
(-4.09194e-32 3.79265e-22 -500)
(-5.90293e-25 3.79265e-22 -500)
(-1.5663e-23 3.79265e-22 -500)
(-3.04711e-15 3.79247e-22 -500)
(-5.54726e-12 -1.42533e-22 -500)
(5.54274e-12 -1.13217e-23 -500)
(4.56461e-15 2.76322e-23 -500)
(1.5663e-23 2.76323e-23 -500)
(5.90293e-25 2.76323e-23 -500)
(6.97879e-32 2.76323e-23 -500)
(-3.13077e-31 2.76323e-23 -500)
(-2.60596e-24 2.76323e-23 -500)
(5.74755e-15 3.4036e-23 -500)
(-1.12355e-12 8.80522e-14 -500)
(-1.02993e-12 2.00012e-13 -500)
(9.66985e-13 4.58794e-13 -500)
(1.56437e-12 1.85086e-13 -500)
(6.7433e-23 3.50506e-23 -500)
(3.36463e-24 2.76323e-23 -500)
(5.41648e-31 2.76323e-23 -500)
(-3.69701e-32 2.76323e-23 -500)
(-5.90293e-25 2.76323e-23 -500)
(-1.5663e-23 2.76323e-23 -500)
(-3.04711e-15 2.76322e-23 -500)
(-5.54726e-12 -1.13217e-23 -500)
(5.54274e-12 -8.69564e-30 -500)
(4.56461e-15 1.63191e-29 -500)
(1.5663e-23 1.62622e-29 -500)
(5.90293e-25 1.69627e-29 -500)
(6.78986e-32 1.76881e-29 -500)
(-4.04208e-31 1.70668e-29 -500)
(-3.78422e-24 3.91685e-30 -500)
(7.11021e-15 -4.80209e-23 -500)
(-7.71505e-13 1.55222e-13 -500)
(-4.17125e-13 5.57839e-13 -500)
(8.15196e-13 3.25721e-13 -500)
(1.78157e-13 7.2299e-14 -500)
(3.89616e-16 5.49208e-23 -500)
(1.44404e-24 3.63055e-29 -500)
(2.50178e-31 1.68613e-29 -500)
(-4.21547e-32 1.55896e-29 -500)
(-5.90293e-25 1.70767e-29 -500)
(-1.5663e-23 1.64555e-29 -500)
(-3.04711e-15 1.47922e-29 -500)
(-5.54726e-12 -8.43896e-30 -500)
(5.54274e-12 -4.98968e-29 -500)
(4.56461e-15 -3.57098e-29 -500)
(1.5663e-23 -3.63856e-29 -500)
(5.90293e-25 -1.87613e-29 -500)
(6.48137e-32 2.22378e-30 -500)
(-5.3016e-31 -1.26661e-29 -500)
(-4.26195e-24 1.12467e-29 -500)
(8.85066e-15 8.17227e-23 -500)
(-3.87845e-13 1.57273e-14 -500)
(-8.42738e-13 1.7814e-13 -500)
(4.4653e-13 -9.21639e-14 -500)
(1.10918e-12 -1.05223e-13 -500)
(2.89848e-23 -5.58938e-23 -500)
(1.19122e-24 -7.94569e-29 -500)
(1.69237e-31 -2.56138e-29 -500)
(-3.8831e-32 -5.59626e-29 -500)
(-5.90293e-25 -1.74425e-29 -500)
(-1.5663e-23 -3.16418e-29 -500)
(-3.04711e-15 -7.7404e-29 -500)
(-5.54726e-12 -4.43866e-29 -500)