# Force and moment coefficients
# dragDir     : (0.000000e+00 0.000000e+00 1.000000e+00)
# sideDir     : (1.000000e+00 0.000000e+00 0.000000e+00)
# liftDir     : (0.000000e+00 1.000000e+00 0.000000e+00)
# rollAxis    : (0.000000e+00 0.000000e+00 1.000000e+00)
# pitchAxis   : (1.000000e+00 0.000000e+00 0.000000e+00)
# yawAxis     : (0.000000e+00 1.000000e+00 0.000000e+00)
# magUInf     : 5.000000e+02
# lRef        : 3.000000e+00
# Aref        : 1.000000e-01
# CofR        : (0.000000e+00 0.000000e+00 0.000000e+00)
#
# Time        	Cd            	Cd(f)         	Cd(r)         	Cl            	Cl(f)         	Cl(r)         	CmPitch       	CmRoll        	CmYaw         	Cs            	Cs(f)         	Cs(r)         
500           	3.608973e+01	2.013625e+01	1.595348e+01	-4.808714e+01	2.540792e+01	-7.349506e+01	4.945149e+01	2.091382e+00	-1.723478e+01	-4.003412e+01	-3.725183e+01	-2.782282e+00
600           	3.447772e+01	1.872888e+01	1.574884e+01	3.741713e+00	-5.173545e+00	8.915259e+00	-7.044402e+00	1.490018e+00	1.041106e+01	1.501143e+00	1.116163e+01	-9.660486e+00
