/*--------------------------------*- C++ -*----------------------------------*\
| =========                 |                                                 |
| \\      /  F ield         | OpenFOAM: The Open Source CFD Toolbox           |
|  \\    /   O peration     | Version:  2412                                  |
|   \\  /    A nd           | Website:  www.openfoam.com                      |
|    \\/     M anipulation  |                                                 |
\*---------------------------------------------------------------------------*/
FoamFile
{
    version     2.0;
    format      ascii;
    arch        "LSB;label=32;scalar=64";
    class       volScalarField;
    location    "400";
    object      p;
}
// * * * * * * * * * * * * * * * * * * * * * * * * * * * * * * * * * * * * * //

dimensions      [0 2 -2 0 0 0 0];

internalField   nonuniform List<scalar> 
231232
(
1.7412
4.87132
7.41917
9.95624
12.5412
15.1823
17.8483
20.4631
22.9136
25.0595
26.7505
27.8496
28.2597
27.9432
26.9305
25.3128
23.2225
20.8071
18.2062
15.5337
12.8672
10.2399
7.64564
5.02715
1.79807
4.86948
12.6263
19.056
25.564
32.2268
39.0712
46.0155
52.8594
59.3022
64.9672
69.4458
72.3636
73.452
72.6074
69.9146
65.626
60.1043
53.7514
46.9424
39.9798
33.0689
26.2964
19.6413
13.0329
5.02961
7.41119
19.0425
28.7298
38.6053
48.7871
59.3274
70.1057
80.8098
90.9602
99.943
107.082
111.749
113.488
112.125
107.804
100.955
92.1897
82.1734
71.5186
60.7091
50.0647
39.7147
29.6153
19.6581
7.65587
9.93604
25.5213
38.5681
51.9707
65.9136
80.4892
95.5439
110.644
125.099
137.999
148.323
155.102
157.626
155.621
149.319
139.392
126.784
112.506
97.4663
82.3624
67.6402
53.4661
39.7594
26.3486
10.265
12.5012
32.1354
48.6831
65.8367
83.874
102.95
122.889
143.126
162.72
180.387
194.645
204.058
207.56
204.736
195.943
182.196
164.9
145.525
125.353
105.341
86.0689
67.7314
50.1886
33.1791
12.9161
15.1139
38.9086
59.1226
80.2892
102.814
126.947
152.509
178.802
204.588
228.112
247.282
260.02
264.756
260.878
248.918
230.383
207.312
181.782
155.555
129.886
105.5
82.5988
60.9521
40.1742
15.6164
17.7424
45.7583
69.7636
95.1706
122.553
152.293
184.245
217.583
250.733
281.366
306.598
323.488
329.768
324.546
308.611
284.147
254.049
221.189
187.908
155.809
125.749
97.9068
71.9235
47.2486
18.3334
20.311
52.4844
80.2944
110.047
142.523
178.285
217.262
258.526
300.151
339.136
371.616
393.53
401.683
394.809
374.039
342.467
304.1
262.791
221.566
182.39
146.235
113.21
82.7826
54.1968
20.9891
22.7079
58.7896
90.2397
124.232
161.786
203.687
249.985
299.699
350.562
398.838
439.527
467.207
477.516
468.716
442.379
402.739
355.156
304.629
254.927
208.371
166
127.806
93.0411
60.7126
23.4683
24.7951
64.3031
98.9943
136.827
179.073
226.757
280.097
338.109
398.232
456.011
505.243
538.998
551.591
540.736
508.517
460.466
403.447
343.669
285.635
231.976
183.744
140.774
102.077
66.4138
25.6287
26.4256
68.625
105.895
146.829
192.921
245.428
304.743
369.922
438.189
504.474
561.469
600.805
615.506
602.748
565.115
509.414
443.942
376.021
310.787
251.097
197.972
151.081
109.208
70.8887
27.3185
27.4667
71.3917
110.331
153.291
201.927
257.662
321.026
391.128
465.067
537.353
599.889
643.242
659.468
645.338
603.813
542.652
471.214
397.619
327.433
263.649
207.247
157.758
113.803
73.7615
28.4007
27.8254
72.346
111.864
155.531
205.06
261.934
326.739
398.604
474.591
549.061
613.628
658.463
675.259
660.635
617.691
554.538
480.931
405.286
333.321
268.075
210.507
160.1
115.412
74.7661
28.7789
27.4683
71.3952
110.336
153.299
201.938
257.677
321.048
391.16
465.114
537.422
599.986
643.373
659.632
645.53
604.022
542.864
471.417
397.804
327.596
263.787
207.36
157.847
113.869
73.8049
28.4178
26.4288
68.6323
105.906
146.845
192.943
245.459
304.788
369.987
438.284
504.609
561.657
601.054
615.816
603.108
565.505
509.81
444.322
376.37
311.094
251.358
198.187
151.251
109.333
70.9717
27.3511
24.8
64.3144
99.0113
136.852
179.107
226.805
280.167
338.208
398.373
456.207
505.509
539.342
552.013
541.224
509.042
461
403.962
344.142
286.055
232.335
184.04
141.008
102.251
66.5296
25.6742
22.7145
58.8052
90.2633
124.265
161.834
203.753
250.078
299.829
350.742
399.083
439.851
467.618
478.013
469.283
442.988
403.358
355.755
305.183
255.421
208.796
166.353
128.087
93.2506
60.852
23.5233
20.3192
52.5039
80.3242
110.089
142.583
178.367
217.375
258.68
300.36
339.413
371.975
393.977
402.214
395.408
374.681
343.12
304.733
263.38
222.095
182.849
146.618
113.517
83.0122
54.3501
21.0497
17.7518
45.781
69.7984
95.2202
122.622
152.387
184.372
217.752
250.958
281.658
306.968
323.941
330.299
325.14
309.244
284.791
254.676
221.776
188.438
156.27
126.137
98.219
72.1585
47.4061
18.3957
15.124
38.9333
59.1604
80.3429
102.888
127.046
152.642
178.977
204.814
228.401
247.642
260.454
265.259
261.436
249.51
230.986
207.9
182.335
156.056
130.326
105.872
82.8993
61.1792
40.3268
15.6769
12.5114
32.1604
48.7215
65.891
83.9478
103.048
123.018
143.295
162.935
180.657
194.976
204.452
208.012
205.235
196.47
182.732
165.425
146.019
125.804
105.738
86.4068
68.0057
50.3966
33.3193
12.9717
9.9456
25.5448
38.6043
52.0217
65.9824
80.58
95.6619
110.795
125.29
138.236
148.61
155.44
158.01
156.042
149.763
139.843
127.226
112.925
97.8495
82.7016
67.9296
53.702
39.9389
26.4698
10.3132
7.41938
19.0628
28.7608
38.6488
48.8455
59.4038
70.204
80.9345
91.116
100.134
107.312
112.017
113.791
112.455
108.152
101.308
92.5357
82.5016
71.82
60.9767
50.2938
39.902
29.7581
19.7547
7.69422
4.87554
12.6415
19.0793
25.5965
32.2702
39.1274
46.0872
52.9495
59.4138
65.1029
69.6073
72.5508
73.6624
72.8361
70.1547
65.8696
60.3434
53.9784
47.1512
40.1658
33.2284
26.4271
19.7411
13.1003
5.05612
1.74356
4.87788
7.42931
9.97036
12.5599
15.2064
17.8788
20.5011
22.9603
25.1159
26.817
27.9263
28.3455
28.036
27.0277
25.4114
23.3191
20.8989
18.2907
15.609
12.9319
10.2929
7.68609
5.05422
1.80785
4.64128
8.98459
13.2488
17.7451
22.3199
27.0094
31.7519
36.4096
40.7813
44.6154
47.6409
49.6105
50.3471
49.7821
47.971
45.0795
41.3467
37.0389
32.4063
27.6515
22.9155
18.2639
13.6637
9.27953
4.79615
8.98087
13.8301
19.8914
26.5637
33.3857
40.4535
47.6593
54.7883
61.5266
67.4742
72.1938
75.2783
76.433
75.5434
72.7031
68.189
62.3953
55.7531
48.6605
41.4344
34.2949
27.3569
20.5278
14.294
9.28456
13.2334
19.8756
28.5612
38.2086
48.1481
58.5426
69.238
79.9174
90.1001
99.1606
106.398
111.148
112.925
111.54
107.15
100.214
91.3766
81.3302
70.6995
59.97
49.4678
39.3578
29.4822
20.5475
13.6836
17.7071
26.5157
38.1697
51.2181
64.7928
79.1389
94.0626
109.128
123.647
136.691
147.195
154.127
156.718
154.669
148.232
138.139
125.394
111.055
96.047
81.0695
66.5714
52.7624
39.4045
27.4155
18.3117
22.2456
33.2845
48.0398
64.713
82.2631
101.044
120.838
141.085
160.851
178.822
193.439
203.151
206.779
203.861
194.795
180.707
163.115
143.567
123.381
103.506
84.5212
66.6664
49.5972
34.417
23.0073
26.883
40.275
58.3297
78.9319
100.904
124.747
150.246
176.721
202.95
227.128
247.025
260.353
265.331
261.256
248.745
229.506
205.79
179.816
153.397
127.78
103.671
81.3151
60.2232
41.6483
27.806
31.557
47.3778
68.8828
93.6762
120.491
150.023
182.104
215.959
250.043
281.949
308.558
326.55
333.276
327.676
310.692
284.883
253.523
219.723
185.91
153.66
123.791
96.5046
71.1214
48.9965
32.6431
36.1302
54.3789
79.3819
108.509
140.461
176.185
215.625
257.95
301.297
342.55
377.46
401.317
410.249
402.692
380.055
346.095
305.47
262.428
220.117
180.449
144.305
111.787
81.9652
56.2409
37.3772
40.4038
60.9672
89.3507
122.747
159.882
202.011
249.259
300.82
354.542
406.544
451.234
482.126
493.723
483.771
454.325
410.738
359.439
306.03
254.444
206.897
164.259
126.459
92.265
63.0609
41.803
44.1303
66.7497
98.1723
135.472
177.454
225.71
280.612
341.458
405.893
469.295
524.613
563.299
577.871
565.221
528.206
474.137
411.5
347.374
286.454
231.176
182.322
139.581
101.385
69.051
45.6652
47.0451
71.298
105.159
145.638
191.639
245.078
306.593
375.646
449.782
523.767
589.188
635.412
652.883
637.59
593.241
529.191
456.019
382.178
312.999
251.037
196.919
150.075
108.618
73.7689
48.6904
48.9083
74.2171
109.667
152.237
200.921
257.868
323.932
398.731
479.79
561.476
634.382
686.263
705.922
688.638
638.786
567.341
486.495
405.717
330.748
264.18
206.492
156.905
113.297
76.8063
50.6302
49.5508
75.2254
111.227
154.53
204.159
262.354
330.049
406.928
490.52
575.057
650.764
704.776
725.272
707.252
655.345
581.144
497.459
414.137
337.064
268.837
209.872
159.309
114.94
77.8707
51.3091
48.9116
74.2204
109.671
152.243
200.93
257.881
323.95
398.759
479.832
561.541
634.481
686.404
706.108
688.86
639.029
567.586
486.726
405.924
330.927
264.33
206.614
157
113.367
76.8543
50.6627
47.0519
71.3049
105.169
145.651
191.658
245.105
306.632
375.704
449.87
523.898
589.381
635.681
653.23
638.002
593.689
529.644
456.448
382.565
313.335
251.32
197.149
150.255
108.751
73.8606
48.7526
44.1406
66.7608
98.1882
135.495
177.485
225.754
280.675
341.55
406.027
469.489
524.887
563.668
578.338
565.769
528.801
474.737
412.072
347.895
286.91
231.562
182.638
139.83
101.57
69.1785
45.752
40.4176
60.9829
89.3734
122.779
159.926
202.073
249.347
300.944
354.718
406.79
451.569
482.564
494.265
484.398
455.001
411.423
360.096
306.632
254.976
207.35
164.633
126.756
92.4861
63.2141
41.9077
36.1472
54.399
79.4111
108.551
140.518
176.264
215.734
258.102
301.505
342.831
377.832
401.79
410.822
403.345
380.756
346.807
306.157
263.062
220.681
180.935
144.709
112.109
82.2067
56.4089
37.4924
31.5764
47.4015
68.9175
93.7255
120.559
150.115
182.23
216.128
250.27
282.248
308.943
327.028
333.843
328.315
311.374
285.576
254.195
220.348
186.47
154.147
124.198
96.8318
71.3677
49.1687
32.7615
26.9037
40.301
58.3679
78.986
100.978
124.847
150.379
176.898
203.18
227.425
247.399
260.808
265.864
261.85
249.377
230.148
206.415
180.4
153.925
128.241
104.06
81.6291
60.4608
41.815
27.9209
22.2663
33.3111
48.0789
64.7682
82.3379
101.144
120.969
141.257
161.071
179.101
193.784
203.564
207.255
204.388
195.353
181.274
163.668
144.087
123.853
103.921
84.8732
66.9523
49.8144
34.5699
23.113
17.7265
26.5411
38.2069
51.2704
64.8632
79.2319
94.1836
109.284
123.844
136.937
147.495
154.481
157.123
155.114
148.702
138.615
125.86
111.494
96.4482
81.4237
66.8731
53.0086
39.5922
27.5479
18.4031
13.2499
19.8975
28.5933
38.2535
48.2082
58.6212
69.3395
80.0463
90.2619
99.3599
106.638
111.429
113.244
111.888
107.516
100.585
91.7405
81.6746
71.015
60.2495
49.7069
39.5535
29.6317
20.6532
13.7565
8.99342
13.8475
19.9168
26.5991
33.4327
40.5145
47.7371
54.8864
61.6482
67.6227
72.3708
75.4838
76.6642
75.7949
72.9672
68.4567
62.6577
56.0019
48.889
41.6375
34.4691
27.4999
20.6373
14.3713
9.33656
4.64857
8.99823
13.2693
17.7735
22.3574
27.0576
31.8127
36.4851
40.8736
44.7262
47.7714
49.7601
50.5137
49.9619
48.1587
45.2691
41.5322
37.2147
32.5678
27.7951
23.0387
18.3649
13.7408
9.33273
4.82411
8.72009
13.0314
19.0959
25.4286
31.8778
38.541
45.2992
51.9528
58.2125
63.7153
68.0678
70.9075
71.9734
71.1641
68.5611
64.4083
59.0559
52.8906
46.2736
39.4967
32.7646
26.2034
19.7187
13.4764
9.01923
13.0244
13.3733
19.3765
25.5041
31.8272
38.5347
45.4471
52.3577
58.9549
64.833
69.5371
72.6338
73.8028
72.9181
70.0824
65.5962
59.8797
53.3814
46.5067
39.5711
32.7881
26.3476
20.0616
13.8669
13.4857
19.0702
19.3589
28.235
37.2488
46.6415
56.7104
67.1984
77.7998
88.0295
97.2352
104.664
109.581
111.437
110.013
105.49
98.3881
89.4214
79.3343
68.7804
58.252
48.066
38.4959
29.246
20.083
19.7515
25.3681
25.4515
37.2056
49.2439
61.9406
75.7271
90.2818
105.197
119.786
133.082
143.928
151.161
153.888
151.756
145.064
134.661
121.683
107.277
92.4144
77.7951
63.8433
50.9038
38.5479
26.411
26.2791
31.7621
31.7174
46.5222
61.8538
78.2584
96.3382
115.734
135.941
156.033
174.632
190.007
200.357
204.258
201.142
191.501
176.697
158.498
138.625
118.468
98.9731
80.6694
63.9475
48.2094
32.9201
32.9076
38.3469
38.3422
56.4772
75.5029
96.1878
119.358
144.662
171.52
198.731
224.378
245.917
260.579
266.109
261.594
247.838
227.016
201.855
174.894
148.072
122.619
99.1527
78.0635
58.5317
39.8018
39.7348
45.0021
45.1446
66.8097
89.8633
115.36
144.42
176.778
211.832
248.098
282.987
312.828
333.414
341.193
334.703
315.256
286.293
251.977
215.981
180.932
148.36
118.914
92.9145
69.2459
46.8687
46.6363
51.5289
51.9178
77.2133
104.525
135.264
170.934
211.463
256.33
303.812
350.529
391.319
419.895
430.731
421.509
394.338
354.603
308.539
261.332
216.418
175.59
139.431
108.079
80.0356
53.907
53.4066
57.6411
58.3534
87.2069
118.805
154.976
197.697
247.224
303.271
363.983
425.154
479.75
518.661
533.491
520.647
483.438
430.079
369.632
309.176
253.01
203.08
159.755
122.852
90.404
60.5976
59.7501
62.9823
64.0524
96.1471
131.747
173.128
222.802
281.478
349.273
424.388
501.855
572.576
623.884
643.562
626.272
576.978
507.669
430.975
356.077
288.072
228.879
178.481
136.25
99.6865
66.5273
65.2981
67.1682
68.5702
103.297
142.215
188.019
243.737
310.587
389.203
478.012
571.534
658.662
722.926
747.729
725.708
663.752
578.187
485.465
396.817
317.893
250.414
193.858
147.1
107.12
71.2351
69.6526
69.8479
71.4869
107.943
149.076
197.882
257.781
330.406
416.848
515.827
621.603
721.601
796.217
825.15
799.319
727.241
628.916
523.947
425.075
338.24
264.897
204.073
154.234
111.967
74.2852
72.4497
70.7727
72.4972
109.557
151.471
201.346
262.747
337.471
426.799
529.583
640.019
744.982
823.635
854.195
826.904
750.91
647.673
538.042
435.332
345.569
270.078
207.708
156.761
113.678
75.3592
73.4305
69.8527
71.4889
107.946
149.08
197.886
257.787
330.414
416.863
515.856
621.658
721.702
796.384
825.391
799.621
727.575
629.247
524.25
425.338
338.461
265.076
204.215
154.343
112.048
74.3382
72.4996
67.1781
68.5749
103.304
142.224
188.03
243.752
310.61
389.241
478.078
571.652
658.863
723.241
748.172
726.256
664.354
578.786
486.018
397.303
318.302
250.749
194.126
147.307
107.273
71.336
69.7479
62.9975
64.0608
96.1603
131.764
173.151
222.833
281.524
349.344
424.502
502.04
572.866
624.313
644.143
626.978
577.749
508.441
431.695
356.717
288.618
229.331
178.844
136.533
99.8971
66.6669
65.4307
57.6616
58.3663
87.2273
118.833
155.013
197.749
247.298
303.38
364.147
425.4
480.111
519.166
534.146
521.426
484.286
430.931
370.436
309.899
253.635
203.604
160.181
123.187
90.6545
60.7645
59.9099
51.5542
51.9354
77.2414
104.564
135.316
171.006
211.564
256.473
304.016
350.82
391.724
420.435
431.408
422.298
395.19
355.462
309.358
262.077
217.071
176.144
139.886
108.44
80.3072
54.089
53.5821
45.0312
45.1665
66.8445
89.9115
115.425
144.509
176.9
212
248.33
283.302
313.248
333.953
341.85
335.455
316.062
287.109
252.761
216.702
181.57
148.907
119.368
93.2782
69.5213
47.0542
46.8165
38.3781
38.3671
56.5166
75.5576
96.2618
119.458
144.797
171.7
198.972
224.695
246.326
261.089
266.716
262.278
248.569
227.755
202.57
175.557
148.665
123.133
99.5822
78.4103
58.7959
39.9806
39.9096
31.7936
31.7436
46.5635
61.9109
78.3352
96.4408
115.87
136.12
156.267
174.932
190.384
200.815
204.794
201.74
192.136
177.34
159.122
139.208
118.994
99.4318
81.0561
64.2618
48.4502
33.0837
33.0682
25.3976
25.4771
37.2457
49.2993
62.0147
75.8251
90.41
105.363
119.999
133.35
144.258
151.555
154.342
152.257
145.593
135.198
122.205
107.768
92.8597
78.1861
64.175
51.1749
38.7564
26.5532
26.4184
19.0954
19.3816
28.2704
37.2975
46.7063
56.7954
67.3085
77.9407
88.2075
97.4559
104.931
109.897
111.796
110.407
105.905
98.8082
89.8314
79.7207
69.1327
58.5629
48.331
38.7133
29.4138
20.1976
19.8629
13.0435
13.3905
19.4028
25.5402
31.875
38.597
45.5273
52.4596
59.0824
64.9899
69.7256
72.854
74.0519
73.19
70.3683
65.8859
60.1629
53.6492
46.7518
39.7883
32.974
26.5006
20.18
13.9485
13.5652
8.73481
13.0525
19.1277
25.4725
31.9357
38.6153
45.393
52.0693
58.355
63.8864
68.269
71.1381
72.23
71.4407
68.8496
64.6993
59.3402
53.1596
46.5204
39.716
32.9525
26.3577
19.8369
13.558
9.07438
13.5137
15.9927
23.8589
31.4548
39.2839
47.448
55.7567
63.9711
71.7303
78.5777
84.0141
87.5736
88.9173
87.9128
84.6657
79.492
72.8415
65.205
57.0374
48.7036
40.4493
32.476
24.6868
16.5736
13.9952
15.9809
10.7284
17.052
21.7498
26.9291
32.5985
38.5369
44.5929
50.4804
55.8164
60.1522
63.0438
64.1523
63.3418
60.722
56.6105
51.4382
45.6479
39.6245
33.6595
27.9117
22.6157
17.7706
11.2084
16.5887
23.821
17.0344
27.3054
35.0918
43.7287
53.2142
63.2351
73.5485
83.6718
92.9302
100.513
105.595
107.538
106.085
101.448
94.2301
85.2334
75.262
64.9937
54.9228
45.3045
36.4738
28.4461
17.7914
24.7346
31.3696
21.6955
35.0422
45.1448
56.5623
69.3259
83.057
97.4562
111.853
125.255
136.397
143.945
146.829
144.618
137.676
127.022
113.963
99.7543
85.3999
71.5874
58.6367
46.9563
36.534
22.6806
32.5824
39.1244
26.8154
43.5934
56.4661
71.2812
88.1533
106.683
126.529
146.804
166.067
182.374
193.56
197.836
194.462
184.079
168.406
149.572
129.518
109.703
91.0454
73.9154
58.7531
45.4686
28.0481
40.6466
47.1838
32.3992
52.951
69.0777
87.9871
109.953
134.632
161.697
190.023
217.583
241.41
258.007
264.357
259.197
243.648
220.625
193.585
165.5
138.435
113.56
91.2454
71.8868
55.2415
33.8988
49.0286
55.3552
38.2229
62.7963
82.5927
106.267
134.361
166.716
203.136
242.306
281.458
316.151
340.764
350.21
342.319
319.053
285.358
246.812
207.885
171.405
138.76
110.203
85.959
65.5237
40.0013
57.5292
63.4006
44.1347
72.8856
96.7068
125.771
161.034
202.713
250.956
304.4
359.449
409.599
445.953
459.984
447.966
413.319
364.383
310.015
256.785
208.389
166.292
130.427
100.654
76.0616
46.1969
65.9021
70.9631
49.8516
82.7386
110.753
145.609
188.84
241.288
303.756
375.14
451.051
522.35
575.298
595.905
577.872
527.053
457.195
382.015
310.774
248.019
194.995
150.999
115.282
86.3566
52.191
73.777
77.5948
54.9968
91.6918
123.749
164.355
215.759
279.674
357.925
450.093
551.297
649.367
724.16
753.59
727.384
655.19
558.777
458.316
366.175
287.467
222.791
170.447
128.824
95.7186
57.5904
80.6893
82.8087
59.1334
98.9514
134.455
180.092
238.859
313.464
406.982
520.122
647.979
775.788
875.76
915.549
879.668
782.764
656.794
529.646
416.386
322.221
246.67
186.795
139.997
103.322
61.9391
86.1331
86.1545
61.8321
103.719
141.572
190.706
254.709
337.118
442.131
571.599
721.052
873.879
995.684
1044.57
1000.18
881.83
730.969
582.167
452.435
346.611
263.1
197.856
147.45
108.335
64.7883
89.6396
87.3106
62.7716
105.384
144.075
194.468
260.38
345.678
455.02
590.763
748.715
911.606
1042.33
1094.96
1047.15
920.088
759.219
601.876
465.787
355.543
269.061
201.838
150.117
110.12
65.8002
90.8724
86.16
61.8317
103.719
141.571
190.702
254.701
337.107
442.118
571.594
721.075
873.966
995.885
1044.91
1000.65
882.347
731.467
582.604
452.798
346.902
263.328
198.031
147.582
108.432
64.8462
89.707
82.8201
59.1338
98.9543
134.456
180.09
238.853
313.455
406.977
520.138
648.051
775.979
876.142
916.166
880.48
783.663
657.667
530.424
417.041
322.753
247.092
187.122
140.244
103.505
62.0489
86.2618
77.6128
54.9998
91.7002
123.757
164.362
215.767
279.688
357.953
450.16
551.446
649.664
724.68
754.37
728.38
656.288
559.858
459.295
367.016
288.162
223.35
170.886
129.16
95.9686
57.7413
80.8683
70.9879
49.8588
82.7552
110.772
145.633
188.872
241.335
303.833
375.272
451.282
522.739
575.906
596.754
578.921
528.204
458.338
383.069
311.697
248.797
195.631
151.505
115.674
86.6515
52.3698
73.9919
63.4319
44.147
72.9114
96.7393
125.814
161.092
202.797
251.081
304.591
359.745
410.046
446.594
460.832
448.983
414.426
365.49
311.053
257.71
209.182
166.952
130.96
101.072
76.3789
46.3902
66.1376
55.3917
38.2403
62.8308
82.6375
106.327
134.443
166.829
203.298
242.538
281.792
316.621
341.396
351.01
343.254
320.063
286.374
247.776
208.757
172.165
139.401
110.728
86.3757
65.8429
40.1967
57.7705
47.2236
32.4205
52.9919
69.1318
88.06
110.052
134.766
161.881
190.276
217.926
241.869
258.598
265.078
260.024
244.535
221.521
194.443
166.286
139.129
114.154
91.7368
72.2807
55.5458
34.0859
49.2622
39.1648
26.839
43.6374
56.5246
71.3599
88.2588
106.824
126.718
147.054
166.396
182.797
194.087
198.462
195.169
184.833
169.168
150.306
130.197
110.309
91.5697
74.3538
59.1077
45.7445
28.2184
40.861
31.408
21.7194
35.0858
45.203
56.6402
69.4292
83.1933
97.6343
112.085
125.551
136.768
144.394
147.354
145.201
138.295
127.648
114.569
100.32
85.9089
72.0313
59.0109
47.2611
36.7724
22.8286
32.7686
23.8544
17.0569
27.3456
35.1456
43.8003
53.3084
63.3575
73.7065
83.8727
93.1821
100.821
105.962
107.959
106.548
101.937
94.7246
85.7141
75.7126
65.402
55.2813
45.6085
36.7227
28.6414
17.9135
24.8848
16.0052
10.7426
17.0778
21.7839
26.9745
32.6582
38.6147
44.6928
50.6076
55.975
60.3457
63.2728
64.4139
63.6292
61.0251
56.9176
51.7376
45.9296
39.8809
33.8856
28.1043
22.7743
17.8959
11.2869
16.6931
13.5378
16.02
23.9016
31.5134
39.3608
47.547
55.8818
64.127
71.9212
78.8077
84.285
87.8845
89.2638
88.2866
85.0556
79.8851
73.2249
65.5673
57.3692
48.9979
40.7013
32.6831
24.8467
16.6813
14.0852
18.8168
17.8383
27.7275
35.9761
44.7937
54.0427
63.4906
72.8841
81.8028
89.7148
96.0285
100.183
101.764
100.609
96.8462
90.8604
83.1926
74.4246
65.0874
55.6071
46.2458
37.2504
28.774
18.5466
19.5213
17.8204
6.67807
13.5324
16.0462
19.7667
23.929
28.4117
33.1463
37.8913
42.3162
46.0046
48.5186
49.5086
48.8303
46.5986
43.1399
38.8786
34.2273
29.5198
25.0058
20.7617
16.9211
14.2838
7.12279
18.5697
27.6757
13.5168
25.6744
31.4591
39.2133
47.7577
56.9343
66.5925
76.2673
85.297
92.8327
97.9666
99.9665
98.5298
93.9042
86.7793
78.0387
68.5258
58.9091
49.6694
40.9722
32.9958
26.9758
14.302
28.8393
35.863
15.9926
31.4011
38.3489
48.1311
59.1942
71.3986
84.5984
98.1809
111.184
122.278
129.955
132.947
130.723
123.731
113.179
100.543
87.1512
73.9823
61.6747
50.3973
40.3182
33.0673
16.9852
37.3916
44.586
19.6525
39.0582
48.0253
60.8841
75.7721
92.6294
111.349
131.139
150.588
167.57
179.517
184.17
180.568
169.547
153.276
134.287
114.713
95.9967
78.9729
63.7833
50.5262
41.1625
20.8993
46.5034
53.7021
23.7268
47.4572
58.92
75.5869
95.3877
118.462
144.849
173.614
202.748
228.889
247.651
254.971
249.077
231.547
206.318
177.736
149.192
122.751
99.4154
79.1973
62.0078
50.0367
25.2497
56.0275
62.9761
28.0908
56.4337
70.8826
92.1623
118.155
149.402
186.31
227.944
271.587
311.999
341.712
353.358
343.638
315.551
276.283
233.274
191.828
154.766
123.121
96.5611
74.6075
59.5193
29.9067
65.7202
72.1554
32.6748
65.8342
83.7608
110.491
144.09
185.817
236.837
296.586
361.674
424.221
471.529
490.231
474.127
428.946
367.806
303.402
243.753
192.417
150.104
115.747
88.1635
69.4476
34.7951
75.3186
80.8248
37.2397
75.1966
96.9423
129.775
172.241
226.739
295.805
379.963
475.58
571.122
645.858
675.79
649.339
577.356
483.494
388.555
304.327
234.708
179.379
135.926
102.036
79.3373
39.6624
84.3904
88.4627
41.4616
83.8705
109.477
148.614
200.604
269.437
359.778
474.344
609.988
751.411
866.166
912.946
870.757
759.487
620
484.939
370.039
278.833
208.875
155.642
115.233
88.5059
44.1664
92.3919
94.4934
44.9363
91.0279
120.062
164.915
225.854
308.704
420.891
568.161
749.475
946.802
1113.18
1182.41
1119.04
956.918
761.715
580.795
432.849
319.444
235.157
172.721
126.392
96.085
47.88
98.7219
98.3762
47.2431
95.7922
127.233
176.173
243.688
337.182
466.578
640.819
861.698
1110.33
1326.56
1418.04
1333.61
1122.3
875.882
655.169
479.912
348.977
253.781
184.56
133.985
101.154
50.3584
102.815
99.72
48.0528
97.4684
129.78
180.213
250.17
347.691
483.745
668.708
905.839
1176.33
1414.42
1515.8
1422.17
1189.36
921.108
683.985
497.806
360.032
260.664
188.891
136.74
102.979
51.2517
104.26
98.3816
47.2397
95.7888
127.224
176.156
243.659
337.135
466.511
640.738
861.628
1110.34
1326.79
1418.57
1334.41
1123.18
876.69
655.839
480.436
349.375
254.079
184.781
134.146
101.272
50.4228
102.902
94.5051
44.9313
91.0245
120.049
164.892
225.812
308.64
420.804
568.065
749.428
946.915
1113.63
1183.33
1120.35
958.37
763.075
581.948
433.772
320.159
235.701
173.129
126.692
96.3069
48.0012
98.8881
88.482
41.4579
83.8722
109.47
148.599
200.576
269.393
359.727
474.31
610.038
751.67
866.795
914.052
872.261
761.155
621.595
486.33
371.184
279.743
209.582
156.181
115.635
88.8073
44.3314
92.6222
80.8525
37.2401
75.2077
96.9486
129.779
172.242
226.741
295.821
380.027
475.757
571.517
646.595
676.938
650.827
578.997
485.094
389.988
305.54
235.699
180.166
136.539
102.501
79.6896
39.8559
84.6661
72.1914
32.6809
65.8567
83.7837
110.519
144.127
185.871
236.925
296.742
361.956
424.707
472.303
491.329
475.491
430.441
369.283
304.756
244.93
193.401
150.904
116.381
88.6518
69.8231
35.002
75.6198
63.0191
28.1028
56.4673
70.9217
92.2145
118.225
149.501
186.456
228.167
271.933
312.523
342.466
354.357
344.837
316.853
277.583
234.487
192.905
155.687
123.885
97.1767
75.0884
59.8939
30.1136
66.0278
53.7497
23.7439
47.4995
58.9719
75.6571
95.4826
118.592
145.032
173.874
203.119
229.407
248.347
255.848
250.101
232.651
207.426
178.784
150.139
123.575
100.111
79.7662
62.4578
50.3913
25.4461
56.3246
44.6349
19.6729
39.1053
48.0844
60.9643
75.8796
92.7742
111.545
131.407
150.95
168.049
180.13
184.916
181.42
170.459
154.195
135.165
115.516
96.7059
79.5794
64.2859
50.9281
41.4823
21.0769
46.7757
35.9098
16.0141
31.4483
38.409
48.2122
59.302
71.5416
84.7879
98.4311
111.511
122.695
130.471
133.558
131.409
124.462
113.916
101.252
87.8074
74.568
62.1812
50.8213
40.6603
33.3416
17.1383
37.6281
27.7175
13.5394
25.721
31.5192
39.2938
47.8635
57.0723
66.7712
76.4967
85.5874
93.1924
98.3992
100.467
99.0843
94.49
87.3705
78.6107
69.0588
59.3891
50.0883
41.3258
33.2831
27.2066
14.4329
29.0324
17.8489
6.68878
13.5576
16.0777
19.8092
23.9854
28.4859
33.2434
38.0169
42.4761
46.2033
48.7577
49.7856
49.1372
46.9235
43.4686
39.1977
34.5255
29.7892
25.2417
20.9615
17.0844
14.4172
7.1956
18.6982
18.8523
17.8716
27.7821
36.0499
44.8908
54.1677
63.6488
73.0816
82.0456
90.0081
96.3751
100.582
102.21
101.091
97.3487
91.3667
83.6856
74.8894
65.512
55.983
46.5672
37.5144
28.9802
18.6801
19.6544
24.3866
18.5061
30.6982
38.8914
48.343
58.2227
68.3627
78.5075
88.1932
96.8376
103.778
108.373
110.142
108.893
104.774
98.2314
89.8809
80.3745
70.2948
60.1138
50.0982
40.4311
31.9843
19.3355
25.3567
18.4804
1.75643
9.14935
8.85323
10.9478
13.1818
15.7928
18.7675
21.934
25.0541
27.7815
29.7171
30.5204
30.0437
28.4012
25.9082
22.9504
19.8726
16.9179
14.2699
11.9513
9.72737
9.93653
2.15371
19.3685
30.6305
9.13748
23.2628
26.2443
32.9534
40.0267
47.8345
56.2677
64.9165
73.1926
80.2656
85.1903
87.1624
85.8376
81.493
74.8824
66.9252
58.448
50.051
42.1643
34.9172
27.9462
24.7503
9.94995
32.0698
38.7469
8.80225
26.1755
28.7238
36.4546
44.8827
54.6144
65.5969
77.3442
89.0318
99.3617
106.728
109.687
107.604
101.009
91.2753
79.9782
68.4205
57.4498
47.5884
38.9184
30.8438
28.0323
9.7889
40.6121
48.0817
10.8358
32.7752
36.3401
46.7536
58.4855
72.4539
88.7153
106.683
125.135
141.912
154.122
159.012
155.353
144.209
128.226
110.263
92.4989
76.2041
62.0213
49.9406
39.0588
35.1383
12.0873
50.4238
57.798
12.9803
39.6836
44.5831
58.2796
74.3207
94.1055
117.976
145.373
174.577
202.052
222.56
230.785
224.278
205.222
178.775
150.146
122.931
98.9344
78.8074
62.2729
47.9551
42.5878
14.5151
60.6407
67.7243
15.469
47.2637
54.0464
71.9318
93.7589
121.694
156.729
198.649
245.253
290.861
325.945
340.101
328.357
295.244
250.938
204.969
163.146
127.825
99.355
76.8404
58.143
50.7533
17.3114
71.0842
77.6057
18.2873
55.4017
64.6687
87.7478
117.11
156.158
207.188
271.098
345.619
421.904
482.797
507.655
486.206
427.987
353.31
279.415
215.413
163.833
123.979
93.6739
69.5509
59.5101
20.4558
81.4868
86.9842
21.2641
63.6904
75.9602
105.13
143.785
197.225
270.149
366.142
484.193
611.747
717.939
762.062
722.773
620.182
494.54
376.976
280.545
206.675
152.059
112.143
81.6587
68.425
23.7625
91.3692
95.2902
24.1684
71.5528
87.1087
122.864
172.061
242.658
343.249
482.578
663.652
869.38
1050.05
1127.27
1056.85
880.933
677.35
496.429
356.112
254.031
181.795
130.967
93.6045
76.8833
26.9801
100.133
101.881
26.6665
78.1833
96.8464
138.827
198.437
286.804
417.622
607.733
866.596
1180.97
1472.95
1602.43
1482.26
1196.33
884.123
624.837
433.014
300.056
209.543
147.922
104.048
84.0286
29.748
107.103
106.141
28.3792
82.6746
103.622
150.204
217.787
320.277
476.285
710.904
1043.35
1468.34
1883.87
2074.01
1895.79
1487.46
1064.48
730.895
493.818
335.056
229.968
160.056
111.35
88.8959
31.6572
111.631
107.618
28.9896
84.2691
106.062
154.358
224.969
332.951
499.027
752.025
1116.41
1592.38
2067.63
2287.93
2081.22
1613.82
1139.65
773.645
517.728
348.539
237.709
164.594
114.053
90.6762
32.3644
113.238
106.145
28.3723
82.6664
103.603
150.169
217.724
320.171
476.116
710.657
1043.06
1468.11
1884.03
2074.9
1897.31
1489.1
1065.88
731.967
494.599
335.613
230.364
160.337
111.547
89.0402
31.7295
111.741
101.892
26.6556
78.1722
96.8174
138.773
198.344
286.65
417.386
607.417
866.251
1180.81
1473.39
1603.88
1484.57
1198.84
886.35
626.608
434.346
301.032
210.252
148.434
104.412
84.2981
29.8832
107.313
95.3097
24.1577
71.5465
87.0839
122.817
171.979
242.527
343.06
482.349
663.477
869.469
1050.77
1128.9
1059.26
883.589
679.795
498.458
357.698
255.236
182.696
131.634
94.087
77.2463
27.1622
100.422
87.0138
21.2575
63.6952
75.951
105.109
143.743
197.16
270.067
366.079
484.239
612.087
718.823
763.663
724.97
622.608
496.841
378.959
282.16
207.946
153.038
112.886
82.2072
68.8453
23.9734
91.7138
77.6457
18.2873
55.421
64.6807
87.7593
117.119
156.169
207.219
271.19
345.852
422.408
483.731
509.108
488.087
430.054
355.315
281.203
216.921
165.06
124.952
94.4298
70.1196
59.9539
20.6784
81.8617
67.7734
15.4761
47.2972
54.0795
71.9753
93.8147
121.773
156.85
198.852
245.6
291.44
326.849
341.368
329.922
296.952
252.62
206.509
164.483
128.943
100.265
77.5626
58.6959
51.1924
17.5314
71.4656
57.8534
12.9938
39.7286
44.6333
58.3479
74.4119
94.2308
118.156
145.638
174.975
202.637
223.383
231.862
225.56
206.609
180.156
151.434
124.076
99.9141
79.6214
62.9314
48.467
43.0005
14.7218
61.0081
48.1393
10.8539
32.827
36.4009
46.837
58.5966
72.6045
88.9218
106.97
125.534
142.457
154.84
159.907
156.389
145.321
129.34
111.317
93.4513
77.0342
62.723
50.5171
39.5128
35.509
12.2732
50.7599
38.8025
8.82161
26.2274
28.7861
36.5396
44.9958
54.7649
65.7989
77.6145
89.3915
99.8313
107.322
110.401
108.414
101.872
92.1435
80.8078
69.1802
58.1212
48.1636
39.3968
31.2246
28.3466
9.94653
40.9033
30.6818
9.16119
23.3177
26.3123
33.0454
40.1473
47.992
56.472
65.1805
73.5293
80.6869
85.7022