# Force and moment coefficients
# dragDir     : (0.000000e+00 0.000000e+00 -1.000000e+00)
# sideDir     : (-1.000000e+00 0.000000e+00 0.000000e+00)
# liftDir     : (0.000000e+00 1.000000e+00 0.000000e+00)
# rollAxis    : (0.000000e+00 0.000000e+00 -1.000000e+00)
# pitchAxis   : (-1.000000e+00 0.000000e+00 0.000000e+00)
# yawAxis     : (0.000000e+00 1.000000e+00 0.000000e+00)
# magUInf     : 5.000000e+02
# lRef        : 1.000000e+00
# Aref        : 3.140000e+00
# CofR        : (0.000000e+00 0.000000e+00 0.000000e+00)
#
# Time        	Cd            	Cd(f)         	Cd(r)         	Cl            	Cl(f)         	Cl(r)         	CmPitch       	CmRoll        	CmYaw         	Cs            	Cs(f)         	Cs(r)         
1234          	-4.282775e-01	-2.421417e-01	-1.861358e-01	2.530294e-04	-1.435439e-03	1.688469e-03	-1.561954e-03	-2.800292e-02	-1.897404e-02	1.173020e-02	-1.310894e-02	2.483914e-02
