/*--------------------------------*- C++ -*----------------------------------*\
| =========                 |                                                 |
| \\      /  F ield         | OpenFOAM: The Open Source CFD Toolbox           |
|  \\    /   O peration     | Version:  2412                                  |
|   \\  /    A nd           | Website:  www.openfoam.com                      |
|    \\/     M anipulation  |                                                 |
\*---------------------------------------------------------------------------*/
FoamFile
{
    version     2.0;
    format      ascii;
    arch        "LSB;label=32;scalar=64";
    class       volVectorField;
    location    "0.005";
    object      U;
}
// * * * * * * * * * * * * * * * * * * * * * * * * * * * * * * * * * * * * * //

dimensions      [0 1 -1 0 0 0 0];

internalField   nonuniform List<vector> 
124215
(
(3.35965e-12 3.35965e-12 -500)
(1.19699e-13 3.36606e-12 -500)
(3.08629e-22 3.36606e-12 -500)
(1.05481e-24 3.36606e-12 -500)
(4.46068e-30 3.36606e-12 -500)
(-1.17756e-29 3.36606e-12 -500)
(-1.99322e-24 3.36606e-12 -500)
(-1.06434e-14 3.36276e-12 -500)
(-2.29022e-13 3.24627e-12 -500)
(-5.41133e-13 2.55854e-12 -500)
(2.19305e-13 2.41218e-12 -500)
(6.34855e-13 3.18506e-12 -500)
(6.98856e-21 3.36606e-12 -500)
(1.82085e-24 3.36606e-12 -500)
(3.2847e-29 3.36606e-12 -500)
(-4.41213e-30 3.36606e-12 -500)
(-1.0548e-24 3.36606e-12 -500)
(-3.0863e-22 3.36606e-12 -500)
(-6.0927e-15 3.36606e-12 -500)
(-3.47315e-12 3.35965e-12 -500)
(3.36606e-12 1.20061e-13 -500)
(1.13353e-13 1.13353e-13 -500)
(8.69219e-24 1.13353e-13 -500)
(2.20177e-25 1.13353e-13 -500)
(2.96914e-32 1.13353e-13 -500)
(-2.0801e-29 1.13353e-13 -500)
(-1.73873e-24 1.13353e-13 -500)
(-2.09853e-15 1.13302e-13 -500)
(-4.50067e-13 1.97376e-13 -500)
(-2.98534e-13 3.90196e-13 -500)
(4.03569e-13 2.99386e-13 -500)
(3.58857e-13 2.2288e-13 -500)
(2.95858e-23 1.13353e-13 -500)
(1.16116e-24 1.13353e-13 -500)
(1.76793e-31 1.13353e-13 -500)
(-1.99583e-32 1.13353e-13 -500)
(-2.20177e-25 1.13353e-13 -500)
(-8.69239e-24 1.13353e-13 -500)
(1.53545e-15 1.13353e-13 -500)
(-3.48111e-12 1.20061e-13 -500)
(3.36606e-12 7.04603e-22 -500)
(1.13353e-13 2.29851e-22 -500)
(2.44729e-21 1.78261e-20 -500)
(2.20417e-25 1.78261e-20 -500)
(9.65947e-30 1.78261e-20 -500)
(-1.73646e-29 1.78261e-20 -500)
(-4.10362e-25 1.78261e-20 -500)
(6.47485e-15 1.78499e-20 -500)
(1.51152e-15 2.11077e-14 -500)
(-4.38975e-13 -4.65896e-15 -500)
(8.76526e-14 2.67322e-13 -500)
(5.5848e-13 3.42413e-14 -500)
(3.15678e-22 1.78254e-20 -500)
(4.83359e-25 1.78261e-20 -500)
(4.49685e-30 1.78261e-20 -500)
(-9.6468e-30 1.78261e-20 -500)
(-2.20297e-25 1.78261e-20 -500)
(-2.44729e-21 1.78261e-20 -500)
(1.53545e-15 2.29853e-22 -500)
(-3.48111e-12 7.04603e-22 -500)
(3.36606e-12 2.14114e-23 -500)
(1.13353e-13 7.01045e-24 -500)
(2.44729e-21 7.02026e-24 -500)
(2.20417e-25 7.02026e-24 -500)
(9.65635e-30 7.02026e-24 -500)
(-6.86085e-30 7.02026e-24 -500)
(-9.03284e-25 7.0203e-24 -500)
(-1.96307e-15 -1.04091e-15 -500)
(-3.91936e-13 -1.26174e-13 -500)
(-4.9632e-14 -7.70592e-13 -500)
(4.4142e-13 1.09672e-14 -500)
(-1.33186e-14 1.54662e-14 -500)
(-4.62147e-16 -7.61183e-25 -500)
(2.03288e-24 7.02027e-24 -500)
(4.76156e-30 7.02026e-24 -500)
(-9.64131e-30 7.02026e-24 -500)
(-2.20297e-25 7.02026e-24 -500)
(-2.44729e-21 7.02026e-24 -500)
(1.53545e-15 7.01045e-24 -500)
(-3.48111e-12 2.14114e-23 -500)
(3.36606e-12 3.66206e-29 -500)
(1.13353e-13 7.39905e-30 -500)
(2.44729e-21 6.61935e-28 -500)
(2.20417e-25 6.61289e-28 -500)
(9.64384e-30 6.61859e-28 -500)
(-1.69153e-29 6.61376e-28 -500)
(-4.65549e-24 2.71991e-28 -500)
(-2.4303e-14 -1.04091e-15 -500)
(-9.97554e-13 -9.42894e-14 -500)
(-4.44145e-13 -5.30393e-13 -500)
(9.02291e-13 -4.31828e-13 -500)
(4.71638e-13 -3.11352e-14 -500)
(-6.99465e-18 2.42818e-23 -500)
(1.16273e-24 6.28601e-28 -500)
(1.89217e-31 6.60952e-28 -500)
(-9.64423e-30 6.61304e-28 -500)
(-2.20297e-25 6.61896e-28 -500)
(-2.44729e-21 6.61382e-28 -500)
(1.53545e-15 6.47494e-30 -500)
(-3.48111e-12 3.68056e-29 -500)
(3.36606e-12 -1.00167e-27 -500)
(1.13353e-13 7.9745e-28 -500)
(2.44729e-21 -3.81206e-28 -500)
(2.20417e-25 -1.02255e-27 -500)
(9.65265e-30 -7.71345e-28 -500)
(-2.60314e-29 -5.66149e-28 -500)
(-2.34532e-24 -2.28956e-28 -500)
(-2.71504e-14 9.36011e-23 -500)
(-1.07284e-12 1.9952e-14 -500)
(-4.45895e-13 1.41505e-13 -500)
(9.60833e-13 -1.08742e-13 -500)
(4.81504e-13 -3.51198e-14 -500)
(1.23593e-14 -3.69248e-23 -500)
(1.97614e-24 -1.58797e-27 -500)
(1.15218e-29 -1.09139e-27 -500)
(-9.63726e-30 -1.16085e-27 -500)
(-2.20297e-25 -1.35267e-28 -500)
(-2.44729e-21 -6.79079e-28 -500)
(1.53545e-15 -2.94934e-28 -500)
(-3.48111e-12 -9.96817e-28 -500)
(3.36606e-12 -6.99467e-23 -500)
(1.13353e-13 6.29082e-24 -500)
(2.44729e-21 -2.55747e-23 -500)
(2.20403e-25 -5.1066e-23 -500)
(2.64891e-29 -2.63771e-23 -500)
(-2.4129e-29 -4.42648e-23 -500)
(-1.37103e-24 -1.12462e-23 -500)
(-1.90255e-14 7.0429e-25 -500)
(-8.40338e-13 3.51329e-14 -500)
(-5.50805e-13 1.58651e-13 -500)
(7.3666e-13 -3.1754e-13 -500)
(5.96097e-13 -2.90181e-14 -500)
(1.2988e-15 -6.98081e-24 -500)
(2.04444e-24 -1.16062e-22 -500)
(2.00087e-29 -6.87216e-23 -500)
(-1.44912e-30 -6.47881e-23 -500)
(-2.20298e-25 -2.2591e-23 -500)
(-2.44729e-21 -4.3539e-23 -500)
(1.53545e-15 -4.08792e-23 -500)
(-3.48111e-12 -6.19689e-23 -500)
(3.36463e-12 -9.79053e-15 -500)
(1.13328e-13 6.79486e-16 -500)
(3.96737e-21 6.88069e-15 -500)
(-2.97548e-16 -2.49155e-15 -500)
(-4.6966e-16 -1.3479e-14 -500)
(-7.44176e-16 -1.01863e-14 -500)
(3.25259e-19 5.18914e-16 -500)
(2.66987e-16 1.8233e-15 -500)
(-8.36272e-13 3.03833e-14 -500)
(-8.03668e-13 2.06423e-13 -500)
(7.26664e-13 -1.90794e-13 -500)
(9.07339e-13 -1.11048e-14 -500)
(2.13199e-21 1.47978e-15 -500)
(-9.46009e-17 -5.25584e-15 -500)
(2.79306e-21 -8.38313e-16 -500)
(-2.68944e-16 -1.09349e-14 -500)
(9.26482e-16 -1.19085e-14 -500)
(5.62451e-16 9.58295e-16 -500)
(1.01311e-15 1.86044e-16 -500)
(-3.48106e-12 -2.30009e-14 -500)
(3.26994e-12 -2.69646e-13 -500)
(1.88285e-13 -9.52555e-14 -500)
(-3.03985e-14 -1.68501e-13 -500)
(-5.31664e-14 -5.04188e-13 -500)
(-1.4634e-14 -7.23316e-13 -500)
(-3.046e-14 -4.94619e-13 -500)
(1.3941e-14 -8.57694e-13 -500)
(1.42401e-14 -2.53598e-13 -500)
(-5.53718e-13 -7.23946e-13 -500)
(-6.29785e-13 1.64665e-13 -500)
(4.54409e-13 5.33201e-13 -500)
(7.62966e-13 -6.97939e-13 -500)
(-2.74344e-14 -8.4329e-14 -500)
(-1.00395e-13 -9.76454e-13 -500)
(1.26745e-14 -9.23817e-13 -500)
(-2.8138e-14 -1.10389e-12 -500)
(9.70875e-14 -1.32167e-12 -500)
(9.41257e-14 -2.79801e-13 -500)
(-5.11596e-14 -3.73637e-13 -500)
(-3.42525e-12 -8.73824e-13 -500)
(2.68708e-12 -7.74776e-13 -500)
(4.01305e-13 -5.85526e-13 -500)
(-2.92279e-13 -2.00054e-13 -500)
(-4.90509e-13 -3.21109e-13 -500)
(-7.29749e-16 -1.77086e-13 -500)
(-5.80318e-14 -9.47064e-13 -500)
(1.49601e-13 -3.54558e-13 -500)
(-3.10864e-14 -2.102e-13 -500)
(-2.54828e-13 -9.00565e-14 -500)
(5.7341e-13 3.80982e-13 -500)
(-1.77607e-13 1.17554e-13 -500)
(-6.05774e-15 -6.9506e-13 -500)
(-6.78762e-14 -4.15747e-13 -500)
(-7.36781e-13 -4.59792e-13 -500)
(-1.22093e-13 9.6384e-14 -500)
(-2.83974e-13 -2.71993e-13 -500)
(6.72157e-13 -7.58197e-13 -500)
(7.2472e-13 -1.94992e-13 -500)
(-5.31981e-13 -5.39665e-13 -500)
(-2.3119e-12 -6.2972e-13 -500)
(2.03989e-12 2.38654e-13 -500)
(7.46484e-13 1.91496e-13 -500)
(2.73069e-13 1.95876e-13 -500)
(-1.68806e-14 5.2044e-13 -500)
(-6.43817e-13 6.13502e-13 -500)
(-1.42686e-13 5.18618e-13 -500)
(7.40272e-13 6.93892e-13 -500)
(1.52713e-13 3.40728e-13 -500)
(9.95244e-15 6.44586e-13 -500)
(-5.01618e-13 -1.76149e-13 -500)
(-5.11137e-13 -2.59037e-13 -500)
(3.04557e-13 6.26941e-13 -500)
(2.39421e-13 2.43911e-13 -500)
(4.99058e-13 7.77795e-13 -500)
(1.31528e-13 8.78501e-13 -500)
(-8.08566e-13 9.89061e-13 -500)
(1.46862e-13 1.1917e-12 -500)
(2.07746e-13 3.80949e-13 -500)
(-6.99521e-13 4.10801e-13 -500)
(-2.1747e-12 7.7823e-13 -500)
(3.1648e-12 9.42894e-13 -500)
(2.6501e-13 5.80469e-13 -500)
(1.32951e-14 9.6488e-14 -500)
(-5.62648e-15 2.40096e-13 -500)
(-8.64639e-14 1.78245e-13 -500)
(-1.03602e-14 1.12435e-12 -500)
(6.77425e-14 3.07096e-13 -500)
(5.17404e-15 1.93753e-13 -500)
(-7.30376e-13 1.42568e-13 -500)
(-5.14084e-13 -1.39931e-13 -500)
(6.10278e-13 2.77308e-13 -500)
(4.97782e-13 7.63246e-13 -500)
(3.0406e-14 3.81003e-13 -500)
(7.52038e-14 6.1405e-13 -500)
(4.615e-14 -2.71518e-13 -500)
(-1.53344e-13 3.49409e-13 -500)
(-9.09035e-15 8.21176e-13 -500)
(4.79331e-14 1.50098e-13 -500)
(-5.96913e-14 5.49752e-13 -500)
(-3.36864e-12 7.78097e-13 -500)
(3.36606e-12 3.87671e-20 -500)
(1.13353e-13 1.12517e-15 -500)
(2.44595e-21 2.8019e-16 -500)
(1.22394e-24 3.63493e-20 -500)
(-1.30702e-15 5.42806e-15 -500)
(9.67298e-25 2.69362e-20 -500)
(-2.53722e-24 2.9251e-15 -500)
(1.40444e-15 6.66405e-22 -500)
(-2.52956e-13 -1.2559e-14 -500)
(-3.90443e-13 -1.10763e-13 -500)
(3.50821e-13 3.96625e-14 -500)
(3.789e-13 2.96666e-14 -500)
(1.37262e-14 4.69367e-21 -500)
(1.74412e-16 1.39387e-14 -500)
(-6.86484e-25 -8.24693e-15 -500)
(5.87546e-25 -1.69071e-16 -500)
(1.67364e-24 1.6866e-20 -500)
(-2.44724e-21 3.31024e-15 -500)
(1.53545e-15 1.12518e-15 -500)
(-3.48111e-12 -9.7293e-17 -500)
(3.36606e-12 8.87513e-23 -500)
(1.13353e-13 1.63205e-23 -500)
(2.44729e-21 5.80245e-23 -500)
(2.20447e-25 5.25145e-23 -500)
(2.54504e-29 2.93569e-23 -500)
(-2.08378e-29 1.57377e-23 -500)
(-4.69504e-25 1.82521e-23 -500)
(1.54709e-15 3.46455e-23 -500)
(-1.02512e-12 -4.68105e-14 -500)
(-4.52334e-13 -3.5146e-13 -500)
(8.9698e-13 1.82936e-13 -500)
(4.38493e-13 2.52648e-14 -500)
(1.2004e-14 4.06535e-23 -500)
(1.40619e-24 4.0269e-23 -500)
(-3.6209e-30 2.73082e-23 -500)
(-9.53155e-30 4.4537e-23 -500)
(-2.20296e-25 3.43676e-23 -500)
(-2.44729e-21 1.76495e-23 -500)
(1.53545e-15 1.44956e-23 -500)
(-3.48111e-12 8.01327e-23 -500)
(3.36606e-12 1.38277e-27 -500)
(1.13353e-13 4.99569e-29 -500)
(2.44729e-21 9.87884e-28 -500)
(2.20417e-25 1.16281e-27 -500)
(9.66247e-30 2.39485e-29 -500)
(-3.04573e-29 9.2994e-28 -500)
(-1.93789e-24 -2.2431e-28 -500)
(-1.5923e-14 2.4656e-17 -500)
(-7.56711e-13 7.03857e-14 -500)
(-1.54226e-13 4.95181e-13 -500)
(6.848e-13 2.93682e-13 -500)
(1.26985e-13 4.6794e-14 -500)
(1.87327e-15 1.77553e-23 -500)
(1.87884e-24 1.83868e-28 -500)
(4.06839e-30 -2.15774e-28 -500)
(-9.63949e-30 4.35089e-28 -500)
(-2.20297e-25 1.97279e-28 -500)
(-2.44729e-21 7.82859e-28 -500)
(1.53545e-15 2.53309e-28 -500)
(-3.48111e-12 8.71029e-28 -500)
(3.36606e-12 -3.45408e-29 -500)
(1.13353e-13 -6.3544e-30 -500)
(2.44729e-21 -6.60607e-28 -500)
(2.20417e-25 -6.60787e-28 -500)
(9.65268e-30 -6.61156e-28 -500)
(-3.04763e-29 -6.61429e-28 -500)
(-2.24195e-24 -6.56514e-28 -500)
(-3.89945e-15 9.91664e-24 -500)
(-3.10511e-13 6.60067e-14 -500)
(-1.75512e-13 4.80925e-13 -500)
(3.35759e-13 1.83654e-13 -500)
(1.46849e-13 5.36644e-14 -500)
(1.29065e-15 1.31714e-23 -500)
(5.58301e-25 -5.48421e-28 -500)
(8.19867e-32 -6.61175e-28 -500)
(-9.64614e-30 -6.60875e-28 -500)
(-2.20297e-25 -6.61191e-28 -500)
(-2.44729e-21 -6.61566e-28 -500)
(1.53545e-15 -6.34397e-30 -500)
(-3.48111e-12 -3.4678e-29 -500)
(3.36606e-12 -2.14113e-23 -500)
(1.13353e-13 -7.01043e-24 -500)
(2.44729e-21 -7.01893e-24 -500)
(2.20417e-25 -7.01893e-24 -500)
(9.65575e-30 -7.01893e-24 -500)
(-3.03652e-29 -7.01893e-24 -500)
(-1.16006e-24 -7.01884e-24 -500)
(3.07929e-15 3.31665e-23 -500)
(-1.57194e-13 1.78948e-14 -500)
(3.84767e-14 1.1026e-13 -500)
(2.22401e-13 -3.53752e-13 -500)
(-1.90909e-13 -3.78849e-14 -500)
(7.99503e-15 -5.68262e-23 -500)
(1.33353e-24 -7.01895e-24 -500)
(1.8778e-31 -7.01893e-24 -500)
(-9.64468e-30 -7.01893e-24 -500)
(-2.20297e-25 -7.01893e-24 -500)
(-2.44729e-21 -7.01893e-24 -500)
(1.53545e-15 -7.01043e-24 -500)
(-3.48111e-12 -2.14113e-23 -500)
(3.36606e-12 -7.04606e-22 -500)
(1.13353e-13 -2.29853e-22 -500)
(2.44421e-21 -1.78261e-20 -500)
(2.20416e-25 -1.78261e-20 -500)
(9.6443e-30 -1.78261e-20 -500)
(-1.7266e-29 -1.78261e-20 -500)
(-9.63036e-25 -1.78261e-20 -500)
(5.27936e-15 -1.78332e-20 -500)
(-1.37253e-13 3.09869e-14 -500)
(-5.70804e-13 2.57198e-13 -500)
(1.49253e-13 -4.5097e-13 -500)
(5.94053e-13 -7.31021e-14 -500)
(1.99829e-15 -1.78225e-20 -500)
(2.45178e-24 -1.78261e-20 -500)
(4.36979e-31 -1.78261e-20 -500)
(-9.6267e-30 -1.78261e-20 -500)
(-2.20297e-25 -1.78261e-20 -500)
(-2.44421e-21 -1.78261e-20 -500)
(1.53545e-15 -2.29855e-22 -500)
(-3.48111e-12 -7.04606e-22 -500)
(3.36606e-12 -6.49915e-15 -500)
(1.13352e-13 1.53547e-15 -500)
(9.71073e-24 1.53546e-15 -500)
(2.20476e-25 1.53546e-15 -500)
(3.94119e-32 1.53546e-15 -500)
(-1.64328e-29 1.53546e-15 -500)
(-2.24338e-24 1.53546e-15 -500)
(2.68589e-15 1.53546e-15 -500)
(2.05667e-13 -6.00061e-14 -500)
(-4.39791e-13 -6.04454e-13 -500)
(-4.95668e-14 2.07519e-13 -500)
(4.96238e-13 3.71593e-14 -500)
(4.06206e-21 1.53546e-15 -500)
(1.83269e-24 1.53546e-15 -500)
(1.73725e-29 1.53546e-15 -500)
(-3.14963e-32 1.53546e-15 -500)
(-2.20475e-25 1.53546e-15 -500)
(-9.71093e-24 1.53546e-15 -500)
(1.53581e-15 1.53547e-15 -500)
(-3.48111e-12 -6.49915e-15 -500)
(3.35965e-12 -3.47315e-12 -500)
(1.20061e-13 -3.48111e-12 -500)
(3.21806e-22 -3.48111e-12 -500)
(1.1035e-24 -3.48111e-12 -500)
(4.65536e-30 -3.48111e-12 -500)
(-1.22152e-31 -3.48111e-12 -500)
(3.95648e-16 -3.48111e-12 -500)
(-5.89985e-14 -3.48111e-12 -500)
(-9.14333e-13 -3.44175e-12 -500)
(-5.87469e-14 -2.8286e-12 -500)
(7.49578e-13 -2.76153e-12 -500)
(6.20337e-14 -3.42662e-12 -500)
(-6.13293e-15 -3.48111e-12 -500)
(1.14513e-24 -3.48111e-12 -500)
(1.27628e-29 -3.48111e-12 -500)
(-4.60498e-30 -3.48111e-12 -500)
(-1.10349e-24 -3.48111e-12 -500)
(-3.21807e-22 -3.48111e-12 -500)
(-6.49913e-15 -3.48111e-12 -500)
(-3.47315e-12 -3.47315e-12 -500)
(2.5636e-12 2.5636e-12 -500)
(-8.65684e-15 2.56168e-12 -500)
(7.57639e-22 2.56168e-12 -500)
(4.53579e-25 2.56168e-12 -500)
(1.12726e-29 2.56168e-12 -500)
(-2.82724e-29 2.56168e-12 -500)
(-7.82269e-25 2.56168e-12 -500)
(-3.36935e-14 2.54955e-12 -500)
(-5.45258e-13 2.31602e-12 -500)
(-4.15738e-13 1.59644e-12 -500)
(4.14225e-13 1.92095e-12 -500)
(4.43838e-13 2.40694e-12 -500)
(1.82438e-20 2.56168e-12 -500)
(1.07284e-24 2.56168e-12 -500)
(8.55174e-29 2.56168e-12 -500)
(-1.12583e-29 2.56168e-12 -500)
(-4.53559e-25 2.56168e-12 -500)
(-7.57638e-22 2.56168e-12 -500)
(-9.1386e-16 2.56168e-12 -500)
(-2.5545e-12 2.5636e-12 -500)
(2.56168e-12 -8.68251e-15 -500)
(-7.32518e-15 -7.32522e-15 -500)
(9.8741e-24 -7.32517e-15 -500)
(3.72124e-25 -7.32517e-15 -500)
(4.11938e-32 -7.32517e-15 -500)
(-5.21447e-29 -7.32517e-15 -500)
(-2.45585e-24 -7.32517e-15 -500)
(-2.12395e-15 -7.32517e-15 -500)
(-7.16614e-13 1.49255e-13 -500)
(-2.43599e-13 3.44086e-13 -500)
(5.08728e-13 2.76894e-13 -500)
(3.07062e-13 1.37673e-13 -500)
(1.55617e-23 -7.32517e-15 -500)
(5.17337e-25 -7.32517e-15 -500)
(6.63744e-32 -7.32517e-15 -500)
(-2.95075e-32 -7.32517e-15 -500)
(-3.72123e-25 -7.32517e-15 -500)
(-9.87438e-24 -7.32517e-15 -500)
(-1.50469e-15 -7.32522e-15 -500)
(-2.55222e-12 -8.68251e-15 -500)
(2.56168e-12 6.67951e-22 -500)
(-7.32518e-15 2.39082e-22 -500)
(6.14824e-21 4.48525e-20 -500)
(3.72727e-25 4.48525e-20 -500)
(2.42768e-29 4.48525e-20 -500)
(-7.16316e-29 4.48525e-20 -500)
(-2.56969e-24 4.48525e-20 -500)
(1.26926e-15 4.49545e-20 -500)
(-2.43667e-13 2.48627e-15 -500)
(-1.51872e-13 -1.47684e-13 -500)
(3.02619e-13 -1.42804e-14 -500)
(8.62725e-14 7.28443e-15 -500)
(7.52247e-22 4.4857e-20 -500)
(-3.61481e-25 4.48525e-20 -500)
(1.11255e-29 4.48525e-20 -500)
(-2.42653e-29 4.48525e-20 -500)
(-3.72427e-25 4.48525e-20 -500)
(-6.14824e-21 4.48525e-20 -500)
(-1.50469e-15 2.39085e-22 -500)
(-2.55222e-12 6.67951e-22 -500)
(2.56168e-12 -7.1354e-24 -500)
(-7.32518e-15 1.74183e-23 -500)
(6.14824e-21 1.74432e-23 -500)
(3.72727e-25 1.74432e-23 -500)
(2.42848e-29 1.74432e-23 -500)
(-1.69923e-29 1.74432e-23 -500)
(5.24626e-27 1.74435e-23 -500)
(2.40599e-15 5.27882e-23 -500)
(-9.10594e-13 -5.49431e-14 -500)
(-3.45352e-13 -5.89435e-13 -500)
(8.22446e-13 -4.28399e-13 -500)
(3.12062e-13 -6.28941e-14 -500)
(7.73282e-22 -6.41995e-25 -500)
(8.36298e-25 1.74433e-23 -500)
(1.12859e-29 1.74432e-23 -500)
(-2.42628e-29 1.74432e-23 -500)
(-3.72427e-25 1.74432e-23 -500)
(-6.14824e-21 1.74432e-23 -500)
(-1.50469e-15 1.74183e-23 -500)
(-2.55222e-12 -7.1354e-24 -500)
(2.56168e-12 4.96533e-29 -500)
(-7.32518e-15 1.05122e-29 -500)
(6.14824e-21 1.67156e-27 -500)
(3.72727e-25 1.67132e-27 -500)
(2.42828e-29 1.67173e-27 -500)
(-4.13155e-29 1.6718e-27 -500)
(-1.02022e-24 6.96498e-28 -500)
(1.08963e-15 -9.1336e-23 -500)
(-1.08351e-12 5.99351e-14 -500)
(-5.95226e-13 2.56033e-13 -500)
(9.8299e-13 -1.55612e-13 -500)
(6.8717e-13 -3.05947e-14 -500)
(-5.6735e-17 -5.10248e-24 -500)
(-2.94681e-25 1.56876e-27 -500)
(-6.25639e-32 1.67107e-27 -500)
(-2.42671e-29 1.67034e-27 -500)
(-3.72427e-25 1.67212e-27 -500)
(-6.14824e-21 1.67119e-27 -500)
(-1.50469e-15 9.46146e-30 -500)
(-2.55222e-12 4.96955e-29 -500)
(2.56168e-12 -2.46358e-27 -500)
(-7.32518e-15 -2.26534e-28 -500)
(6.14824e-21 -1.54815e-27 -500)
(3.72727e-25 -2.52701e-27 -500)
(2.42874e-29 -2.15148e-27 -500)
(-6.51757e-29 -1.36767e-27 -500)
(-2.20433e-24 -1.75174e-27 -500)
(2.81721e-15 3.06933e-23 -500)
(-4.35699e-13 7.23976e-14 -500)
(-5.01631e-13 7.26363e-13 -500)
(4.58766e-13 -1.7955e-13 -500)
(5.71212e-13 -2.84137e-15 -500)
(2.2034e-21 -8.11649e-23 -500)
(1.38273e-24 -4.04093e-27 -500)
(2.83946e-29 -2.68702e-27 -500)
(-2.42566e-29 -2.90403e-27 -500)
(-3.72427e-25 -3.00837e-28 -500)
(-6.14824e-21 -1.89971e-27 -500)
(-1.50469e-15 -7.21672e-28 -500)
(-2.55222e-12 -2.46245e-27 -500)
(2.56168e-12 -6.18413e-23 -500)
(-7.32518e-15 -2.43954e-23 -500)
(6.14824e-21 -3.01862e-23 -500)
(3.72692e-25 -3.16897e-23 -500)
(6.68871e-29 -2.05211e-23 -500)
(-6.05159e-29 -4.2652e-24 -500)
(-9.58462e-25 -3.51268e-23 -500)
(3.12214e-15 2.11545e-23 -500)
(-1.77526e-13 -2.18208e-14 -500)
(-6.78928e-13 -4.65867e-14 -500)
(2.09135e-13 -2.93052e-13 -500)
(7.63809e-13 -3.72192e-14 -500)
(1.77038e-20 -2.18583e-23 -500)
(3.4596e-24 -8.94732e-23 -500)
(7.67333e-29 -4.58494e-23 -500)
(-3.91442e-30 -9.11251e-23 -500)
(-3.72427e-25 4.11868e-25 -500)
(-6.14824e-21 -4.2447e-23 -500)
(-1.50469e-15 -7.17312e-23 -500)
(-2.55222e-12 -6.13868e-23 -500)
(2.55718e-12 -2.08074e-14 -500)
(-7.32517e-15 -2.24552e-15 -500)
(1.02747e-20 5.85248e-15 -500)
(-2.0598e-22 2.63258e-15 -500)
(9.26053e-20 5.99593e-15 -500)
(-1.44252e-20 5.34466e-15 -500)
(-2.0207e-24 6.7527e-16 -500)
(-1.54778e-15 2.11634e-15 -500)
(-5.90736e-13 -1.82546e-16 -500)
(-7.56773e-13 -2.15972e-13 -500)
(4.6427e-13 2.06158e-13 -500)
(9.67572e-13 3.07542e-14 -500)
(5.24162e-21 2.19389e-15 -500)
(-1.41228e-19 9.03954e-16 -500)
(7.23848e-21 2.67387e-15 -500)
(3.10733e-20 4.85397e-15 -500)
(5.58512e-21 -3.07892e-15 -500)
(-9.90421e-21 1.32024e-14 -500)
(-1.50487e-15 -3.65407e-16 -500)
(-2.55076e-12 -1.85212e-14 -500)
(2.38745e-12 -6.92378e-13 -500)
(1.03291e-13 -6.95219e-13 -500)
(1.71556e-14 -3.48318e-13 -500)
(-9.06486e-15 -5.17189e-13 -500)
(4.3683e-14 -5.4433e-13 -500)
(-2.29474e-14 -1.37033e-13 -500)
(-5.9095e-14 -8.1958e-13 -500)
(1.74904e-14 -6.73273e-13 -500)
(-3.7821e-13 -4.93775e-13 -500)
(-4.33313e-13 -9.32119e-14 -500)
(4.17302e-13 3.71947e-13 -500)
(4.30504e-13 -2.46238e-13 -500)
(-3.07149e-14 -6.39628e-13 -500)
(-1.73509e-14 -7.5513e-13 -500)
(2.70214e-14 -8.45519e-13 -500)
(-5.27143e-15 -4.92997e-13 -500)
(2.60763e-14 -6.67665e-13 -500)
(1.05064e-14 -1.34275e-13 -500)
(-4.54725e-14 -5.38778e-13 -500)
(-2.45144e-12 -5.88748e-13 -500)
(1.51402e-12 -4.2581e-13 -500)
(3.81139e-13 -4.388e-13 -500)
(2.83357e-14 -5.21748e-13 -500)
(-1.90896e-13 -1.03655e-12 -500)
(2.60612e-13 -3.63772e-13 -500)
(-2.01642e-13 -8.20788e-13 -500)
(-3.3728e-13 -3.473e-13 -500)
(1.74792e-13 -7.89075e-13 -500)
(-4.77517e-14 -3.31568e-13 -500)
(1.4073e-13 7.9282e-14 -500)
(2.25668e-13 -2.34775e-13 -500)
(-1.54072e-13 -9.15303e-13 -500)
(-2.75919e-13 -3.74682e-13 -500)
(-2.20077e-13 -2.43576e-13 -500)
(2.10704e-13 -3.28773e-13 -500)
(1.5586e-13 -3.07969e-13 -500)
(3.30739e-13 -4.02112e-13 -500)
(1.27536e-13 -2.70985e-13 -500)
(-4.91263e-13 -1.47898e-13 -500)
(-1.5874e-12 -1.05354e-13 -500)
(1.74549e-12 5.57703e-13 -500)
(-1.35924e-15 4.98153e-13 -500)
(-5.78295e-13 3.18504e-13 -500)
(2.10795e-13 4.95272e-13 -500)
(1.95192e-13 4.7627e-13 -500)
(1.36084e-14 2.37937e-13 -500)
(9.38795e-14 6.94755e-13 -500)
(1.87288e-14 5.88335e-13 -500)
(3.30718e-13 5.00292e-13 -500)
(-2.72926e-13 1.31912e-13 -500)
(-6.6747e-13 -1.67116e-13 -500)
(3.57233e-13 3.79598e-13 -500)
(7.5196e-13 5.59424e-13 -500)
(-3.5516e-14 7.27564e-13 -500)
(-5.19614e-14 7.66647e-13 -500)
(-2.45178e-14 5.38393e-13 -500)
(3.02672e-14 5.85033e-13 -500)
(2.69495e-13 1.73443e-13 -500)
(-1.14924e-14 4.58622e-13 -500)
(-2.06362e-12 5.12321e-13 -500)
(2.4419e-12 4.8056e-13 -500)
(8.83486e-15 4.63273e-13 -500)
(-6.71628e-14 6.99087e-13 -500)
(4.4981e-14 1.31404e-12 -500)
(2.25918e-14 2.58438e-13 -500)
(-1.49455e-14 1.00714e-12 -500)
(-1.96111e-15 3.00099e-13 -500)
(1.09986e-15 9.35228e-13 -500)
(-4.64638e-13 3.35086e-13 -500)
(-5.70435e-13 -3.13019e-13 -500)
(4.64908e-13 3.54656e-13 -500)
(6.40384e-13 1.03378e-12 -500)
(5.0691e-14 3.34239e-13 -500)
(-3.20204e-14 2.23325e-13 -500)
(6.19424e-15 5.35894e-13 -500)
(2.43313e-14 3.6592e-13 -500)
(-1.94216e-14 5.3311e-13 -500)
(1.55604e-14 3.23003e-13 -500)
(6.08836e-15 1.78268e-13 -500)
(-2.50303e-12 1.68683e-13 -500)
(2.56168e-12 9.46332e-20 -500)
(-7.32518e-15 5.74554e-21 -500)
(6.14661e-21 5.62657e-20 -500)
(5.03312e-24 8.03177e-20 -500)
(3.86898e-25 -5.9801e-22 -500)
(-2.17985e-24 5.91849e-20 -500)
(-1.44509e-24 6.12403e-21 -500)
(-1.79618e-16 2.88263e-22 -500)
(-8.009e-13 4.00696e-14 -500)
(-3.94665e-13 2.17305e-13 -500)
(6.52649e-13 1.3884e-13 -500)
(4.36599e-13 9.27248e-15 -500)
(1.76824e-20 1.06577e-20 -500)
(2.82806e-24 6.02075e-21 -500)
(-2.17414e-24 1.55956e-22 -500)
(3.97745e-25 -1.21315e-15 -500)
(3.73845e-25 3.11463e-20 -500)
(-6.15007e-21 4.87681e-20 -500)
(-1.50469e-15 1.3881e-20 -500)
(-2.55222e-12 -7.45236e-16 -500)
(2.56168e-12 4.26307e-23 -500)
(-7.32518e-15 3.01812e-23 -500)
(6.14824e-21 6.41857e-23 -500)
(3.72803e-25 7.09898e-23 -500)
(3.55403e-29 -4.2104e-23 -500)
(-5.31124e-29 4.45197e-23 -500)
(-3.42625e-25 2.31526e-23 -500)
(4.07492e-15 4.26847e-23 -500)
(-1.89809e-13 5.99702e-16 -500)
(-4.61604e-13 9.09542e-14 -500)
(3.39027e-13 -2.1495e-13 -500)
(5.07949e-13 -2.97177e-14 -500)
(-1.10126e-17 5.29946e-23 -500)
(-1.47817e-26 1.12143e-23 -500)
(-3.74499e-29 8.81089e-24 -500)
(-2.41888e-29 2.76124e-23 -500)
(-3.72423e-25 2.5719e-23 -500)
(-6.14824e-21 4.63021e-23 -500)
(-1.50469e-15 2.21883e-23 -500)
(-2.55222e-12 4.07747e-23 -500)
(2.56168e-12 3.31017e-27 -500)
(-7.32518e-15 3.39954e-28 -500)
(6.14824e-21 2.44293e-27 -500)
(3.72727e-25 2.89952e-27 -500)
(2.42782e-29 -2.406e-29 -500)
(-7.64276e-29 2.48786e-27 -500)
(-2.74443e-24 -3.40028e-28 -500)
(-2.63152e-15 -7.59543e-23 -500)
(-6.89859e-13 -3.7627e-14 -500)
(-6.3129e-13 -1.92499e-13 -500)
(5.59406e-13 -6.60532e-14 -500)
(8.01193e-13 -3.49766e-15 -500)
(-8.49594e-17 -4.97011e-24 -500)
(3.16676e-25 3.80175e-28 -500)
(9.55205e-30 8.78996e-30 -500)
(-2.42631e-29 1.17529e-27 -500)
(-3.72427e-25 4.57128e-28 -500)
(-6.14824e-21 2.118e-27 -500)
(-1.50469e-15 8.4913e-28 -500)
(-2.55222e-12 2.01773e-27 -500)
(2.56168e-12 -5.06302e-29 -500)
(-7.32518e-15 -9.00752e-30 -500)
(6.14824e-21 -1.66926e-27 -500)
(3.72727e-25 -1.66933e-27 -500)
(2.42751e-29 -1.67159e-27 -500)
(-7.64448e-29 -1.66971e-27 -500)
(-3.10757e-24 -1.6689e-27 -500)
(3.96122e-15 2.65129e-24 -500)
(-5.68182e-13 1.205e-14 -500)
(-5.31929e-13 7.73654e-15 -500)
(5.19876e-13 4.04134e-14 -500)
(6.85004e-13 1.50749e-16 -500)
(-6.38194e-16 -4.22195e-24 -500)
(1.14423e-25 -1.4011e-27 -500)
(1.70277e-32 -1.67053e-27 -500)
(-2.42655e-29 -1.67004e-27 -500)
(-3.72427e-25 -1.67039e-27 -500)
(-6.14824e-21 -1.66977e-27 -500)
(-1.50469e-15 -9.06188e-30 -500)
(-2.55222e-12 -5.06727e-29 -500)
(2.56168e-12 7.13541e-24 -500)
(-7.32518e-15 -1.74183e-23 -500)
(6.14824e-21 -1.74399e-23 -500)
(3.72727e-25 -1.74399e-23 -500)
(2.42761e-29 -1.74399e-23 -500)
(-7.63967e-29 -1.74399e-23 -500)
(-2.57272e-24 -1.74396e-23 -500)
(2.5381e-15 5.4899e-23 -500)
(-7.67828e-13 2.05359e-14 -500)
(-6.04556e-13 1.26667e-13 -500)
(5.54738e-13 1.33751e-14 -500)
(7.69396e-13 -9.69931e-16 -500)
(-2.40883e-17 -3.94688e-23 -500)
(-1.99613e-25 -1.74399e-23 -500)
(-4.7295e-32 -1.74399e-23 -500)
(-2.42672e-29 -1.74399e-23 -500)
(-3.72427e-25 -1.74399e-23 -500)
(-6.14824e-21 -1.74399e-23 -500)
(-1.50469e-15 -1.74183e-23 -500)
(-2.55222e-12 7.13541e-24 -500)
(2.56168e-12 -6.67964e-22 -500)
(-7.32518e-15 -2.39085e-22 -500)
(6.1404e-21 -4.48525e-20 -500)
(3.72726e-25 -4.48525e-20 -500)
(2.4251e-29 -4.48525e-20 -500)
(-4.33428e-29 -4.48525e-20 -500)
(-1.17556e-24 -4.48525e-20 -500)
(2.072e-15 -4.48989e-20 -500)
(-3.70327e-13 2.15452e-14 -500)
(-5.35659e-13 1.67076e-13 -500)
(3.91335e-13 2.55754e-13 -500)
(6.07744e-13 5.12796e-14 -500)
(4.27809e-23 -4.48948e-20 -500)
(1.49395e-24 -4.48525e-20 -500)
(3.14689e-31 -4.48525e-20 -500)
(-2.42298e-29 -4.48525e-20 -500)
(-3.72427e-25 -4.48525e-20 -500)
(-6.1404e-21 -4.48525e-20 -500)
(-1.50469e-15 -2.39088e-22 -500)
(-2.55222e-12 -6.67964e-22 -500)
(2.56168e-12 -9.13385e-16 -500)
(-7.32624e-15 -1.50465e-15 -500)
(1.24702e-23 -1.5047e-15 -500)
(3.72655e-25 -1.5047e-15 -500)
(7.70906e-32 -1.5047e-15 -500)
(-4.09123e-29 -1.5047e-15 -500)
(-2.91547e-24 -1.5047e-15 -500)
(6.31614e-15 -1.5047e-15 -500)
(-5.54904e-13 1.82882e-14 -500)
(-3.93049e-13 2.71128e-14 -500)
(4.2532e-13 2.38562e-14 -500)
(3.37158e-13 9.92759e-15 -500)
(1.01671e-20 -1.5047e-15 -500)
(1.98878e-24 -1.5047e-15 -500)
(4.32796e-29 -1.5047e-15 -500)
(-6.00398e-32 -1.5047e-15 -500)
(-3.72654e-25 -1.5047e-15 -500)
(-1.24705e-23 -1.5047e-15 -500)
(-1.50363e-15 -1.50465e-15 -500)
(-2.55222e-12 -9.13385e-16 -500)
(2.5636e-12 -2.5545e-12 -500)
(-8.68253e-15 -2.55222e-12 -500)
(7.59213e-22 -2.55222e-12 -500)
(4.54034e-25 -2.55222e-12 -500)
(1.12938e-29 -2.55222e-12 -500)
(-1.11399e-31 -2.55222e-12 -500)
(-9.04558e-25 -2.55222e-12 -500)
(5.67929e-15 -2.55219e-12 -500)
(-7.94219e-14 -2.49871e-12 -500)
(-2.70662e-13 -1.89638e-12 -500)
(1.99669e-13 -1.83917e-12 -500)
(3.54858e-13 -2.5015e-12 -500)
(3.15283e-21 -2.55222e-12 -500)
(1.28553e-24 -2.55222e-12 -500)
(3.19063e-29 -2.55222e-12 -500)
(-1.12783e-29 -2.55222e-12 -500)
(-4.54014e-25 -2.55222e-12 -500)
(-7.59213e-22 -2.55222e-12 -500)
(-9.13358e-16 -2.55222e-12 -500)
(-2.5545e-12 -2.5545e-12 -500)
(2.64889e-12 2.64889e-12 -500)
(-1.42665e-16 2.64912e-12 -500)
(1.4369e-24 2.64912e-12 -500)
(4.53393e-25 2.64912e-12 -500)
(1.37709e-31 2.64912e-12 -500)
(-1.64025e-31 2.64912e-12 -500)
(-1.54899e-24 2.64912e-12 -500)
(-2.42572e-15 2.64934e-12 -500)
(1.13645e-13 2.59291e-12 -500)
(-6.67732e-13 2.19321e-12 -500)
(1.98854e-14 1.28877e-12 -500)
(7.70798e-13 2.35958e-12 -500)
(1.2675e-23 2.64912e-12 -500)
(5.02027e-25 2.64912e-12 -500)
(6.97126e-32 2.64912e-12 -500)
(-1.26183e-31 2.64912e-12 -500)
(-4.53393e-25 2.64912e-12 -500)
(-1.4369e-24 2.64912e-12 -500)
(-9.20982e-16 2.64912e-12 -500)
(-2.64881e-12 2.64889e-12 -500)
(2.64912e-12 -1.43167e-16 -500)
(4.48176e-16 4.48188e-16 -500)
(9.87407e-24 4.48188e-16 -500)
(3.72137e-25 4.48188e-16 -500)
(4.90064e-32 4.48188e-16 -500)
(-4.19626e-32 4.48188e-16 -500)
(-4.71133e-25 4.48188e-16 -500)
(-2.16294e-15 4.48188e-16 -500)
(-4.92694e-13 -1.03135e-13 -500)
(-6.07567e-13 -8.40862e-13 -500)
(3.79824e-13 1.32229e-13 -500)
(6.81543e-13 1.32503e-13 -500)
(4.72433e-23 4.48188e-16 -500)
(2.31842e-24 4.48188e-16 -500)
(3.75036e-31 4.48188e-16 -500)
(-2.24037e-32 4.48188e-16 -500)
(-3.72136e-25 4.48188e-16 -500)
(-9.87407e-24 4.48188e-16 -500)
(-1.51182e-15 4.48188e-16 -500)
(-2.64898e-12 -1.43167e-16 -500)
(2.64912e-12 -8.98563e-23 -500)
(4.48176e-16 2.39089e-22 -500)
(9.87442e-24 2.39103e-22 -500)
(3.72137e-25 2.39103e-22 -500)
(4.1899e-32 2.39103e-22 -500)
(-2.79382e-31 2.39103e-22 -500)
(-2.48076e-24 2.39103e-22 -500)
(7.30799e-16 2.56104e-22 -500)
(-9.45424e-13 -7.53451e-15 -500)
(-6.71728e-13 -2.28231e-13 -500)
(7.46784e-13 -6.11393e-14 -500)
(7.2074e-13 -1.95387e-15 -500)
(2.06656e-23 2.55199e-22 -500)
(9.76089e-25 2.39103e-22 -500)
(1.84086e-31 2.39103e-22 -500)
(-2.5593e-32 2.39103e-22 -500)
(-3.72136e-25 2.39103e-22 -500)
(-9.87442e-24 2.39103e-22 -500)
(-1.51182e-15 2.39089e-22 -500)
(-2.64898e-12 -8.98563e-23 -500)
(2.64912e-12 -7.13753e-24 -500)
(4.48176e-16 1.74202e-23 -500)
(9.87442e-24 1.74202e-23 -500)
(3.72137e-25 1.74202e-23 -500)
(4.55031e-32 1.74202e-23 -500)
(-1.46251e-31 1.74202e-23 -500)
(-1.2417e-24 1.74202e-23 -500)
(1.22856e-15 2.87006e-23 -500)
(-6.34653e-13 4.84978e-14 -500)
(-6.22673e-13 1.84709e-13 -500)
(6.25256e-13 3.56417e-13 -500)
(7.85252e-13 8.0424e-14 -500)
(3.86529e-23 2.82698e-23 -500)
(1.93434e-24 1.74202e-23 -500)
(3.03904e-31 1.74202e-23 -500)
(-2.41859e-32 1.74202e-23 -500)
(-3.72136e-25 1.74202e-23 -500)
(-9.87442e-24 1.74202e-23 -500)
(-1.51182e-15 1.74202e-23 -500)
(-2.64898e-12 -7.13752e-24 -500)
(2.64912e-12 -5.61119e-30 -500)
(4.48176e-16 1.01667e-29 -500)
(9.87442e-24 1.00732e-29 -500)
(3.72137e-25 1.09079e-29 -500)
(4.27094e-32 1.13732e-29 -500)
(-2.5771e-31 1.09511e-29 -500)
(-2.42866e-24 2.33268e-31 -500)
(3.83716e-15 -3.73557e-23 -500)
(-4.67186e-13 6.47321e-14 -500)
(-2.24839e-13 4.91681e-13 -500)
(5.37881e-13 1.89008e-13 -500)
(1.16215e-13 2.56532e-14 -500)
(-1.873e-16 2.96516e-23 -500)
(5.82782e-25 2.10816e-29 -500)
(1.01199e-31 1.05955e-29 -500)
(-2.78081e-32 9.76217e-30 -500)
(-3.72136e-25 1.07968e-29 -500)
(-9.87442e-24 1.03616e-29 -500)
(-1.51182e-15 9.16064e-30 -500)
(-2.64898e-12 -5.45953e-30 -500)
(2.64912e-12 -3.47805e-29 -500)
(4.48176e-16 -2.5761e-29 -500)
(9.87442e-24 -2.78723e-29 -500)
(3.72137e-25 -6.07026e-30 -500)
(4.05632e-32 7.44336e-30 -500)
(-3.40255e-31 -2.10444e-30 -500)
(-2.66551e-24 4.17198e-30 -500)
(5.99451e-15 5.82216e-23 -500)
(-1.131e-13 8.74444e-15 -500)
(-5.18553e-13 1.74665e-13 -500)
(1.67004e-13 -2.7544e-13 -500)
(5.68092e-13 -6.29073e-14 -500)
(1.91523e-23 -5.45573e-23 -500)
(7.36666e-25 -5.52873e-29 -500)
(1.01511e-31 -1.71923e-29 -500)
(-2.42883e-32 -3.69327e-29 -500)
(-3.72136e-25 -1.06773e-29 -500)