/*--------------------------------*- C++ -*----------------------------------*\
| =========                 |                                                 |
| \\      /  F ield         | OpenFOAM: The Open Source CFD Toolbox           |
|  \\    /   O peration     | Version:  2412                                  |
|   \\  /    A nd           | Website:  www.openfoam.com                      |
|    \\/     M anipulation  |                                                 |
\*---------------------------------------------------------------------------*/
FoamFile
{
    version     2.0;
    format      ascii;
    arch        "LSB;label=32;scalar=64";
    class       volScalarField;
    location    "0";
    object      p;
}
// * * * * * * * * * * * * * * * * * * * * * * * * * * * * * * * * * * * * * //

dimensions      [0 2 -2 0 0 0 0];

internalField   nonuniform List<scalar> 
231232
(
31289.3
36202.7
39102.9
38391.7
36439.6
34232.7
32149.5
30343.4
28866
27725.9
26916.7
26430.5
26267
26427.7
26917.1
27740.4
28901.5
30400.8
32223.2
34314.4
36527.3
38482
39187.5
36264
31325.8
36196.4
41305.1
55648
57981.5
55143
49869.4
43879.9
38130.2
33114.8
29080.8
26137.4
24348.5
23742.1
24333.4
26121.2
29082.3
33159.4
38225.9
44027.7
50063.5
55374.9
58233.6
55877.7
41439
36263.1
39084.4
55622.4
91449.1
106173
117587
126201
132171
136076
138527
139995
140826
141239
141364
141250
140865
140092
138706
136362
132566
126692
118142
106733
91928.8
55872.1
39184.6
38360.1
57926.1
106138
116138
123976
132595
140685
147433
152650
156447
158993
160456
160940
160489
159074
156594
152890
147780
141150
133172
124636
116825
106743
58221.3
38478.2
36400.6
55064.9
117524
123944
124359
127243
132044
137289
142049
145883
148647
150307
150877
150366
148770
146083
142331
137668
132528
127839
125059
124701
118202
55365.2
36525.1
34190.8
49777.7
126120
132541
127221
123714
123409
125119
127612
130086
132080
133364
133831
133450
132251
130338
127944
125528
123910
124324
127950
133348
126839
50065.2
34316.3
32105.9
43773.9
132077
140620
132014
123406
118180
115907
115475
115937
116658
117248
117505
117361
116875
116245
115855
116354
118703
124036
132774
141467
132822
44045.3
32231.1
30291.7
38003.1
135972
147369
137274
125136
115932
110075
106769
105121
104426
104215
104220
104350
104682
105474
107193
110555
116481
125791
138065
148249
136734
38261.8
30417.1
28801
32963.8
138415
152604
142064
127674
115548
106819
101065
97522.1
95512.1
94536.6
94297.2
94689.4
95799.3
97911.6
101522
107329
116121
128353
142883
153508
139187
33215.6
28927.6
27648.1
28910.7
139891
156428
145949
130204
116074
105236
97586.1
92526.2
89433.1
87816.5
87370
87982.7
89743.1
92941
98066.4
105763
116664
130901
146785
157346
140667
29160.6
27776.7
26832.7
25969.5
140743
159020
148769
132264
116863
104609
95641
89496.7
85611.9
83520.9
82918.9
83694.1
85933.6
89923
96131
105143
117458
132967
149610
159937
141514
26220.5
26963.3
26350
24199.1
141193
160535
150492
133616
117522
104465
94732
87942.7
83582.7
81200.4
80499.8
81370.6
83898.5
88362.8
95212.8
104991
118108
134308
151320
161435
141949
24452
26481.7
26195.4
23624.1
141360
161072
151123
134147
117846
104541
94562.5
87566.9
83048
80564.7
79825
80721.5
83340.5
87957.2
95015.5
105038
118406
134813
151919
161939
142091
23877.7
26326.9
26367.3
24250.6
141284
160665
150661
133823
117765
104740
95030.5
88255.3
83896.1
81503.7
80787
81641
84152.8
88602.2
95437
105195
118284
134445
151410
161483
141978
24502.3
26496.8
26866.8
26070.8
140922
159274
149098
132666
117332
105137
96210.1
90088.1
86204.6
84095.8
83466.7
84212.8
86424.3
90386.1
96564.8
105538
117798
133231
149784
160030
141571
26317.3
26992.6
27697.9
29058
140149
156792
146416
130774
116739
105976
98378.5
93341.5
90247
88609.8
88131.9
88709.8
90434.6
93596.2
98679.6
106321
117143
131274
147032
157479
140746
29296.5
27818.2
28864.8
33151.7
138739
153057
142642
128373
116357
107717
102012
98491.9
96479.2
95483.5
95213.8
95570.5
96641.9
98710.9
102269
108007
116703
128807
143185
153670
139282
33379.9
28978.6
30367.5
38224
136347
147885
137925
125914
116823
111050
107794
106165
105470
105243
105222
105320
105613
106357
108017
111299
117119
126289
138398
148426
136834
38440.8
30474
32190.9
44018.9
132483
141170
132695
124207
119082
116882
116493
116976
117701
118283
118520
118348
117824
117144
116688
117102
119342
124536
133109
141643
132914
44223.5
32289.8
34282.4
50036.8
126537
133095
127891
124484
124259
126024
128554
131045
133048
134331
134787
134384
133150
131185
128722
126219
124493
124778
128253
133503
126912
50226.7
34372.4
36495.6
55326.3
117931
124471
124981
127938
132792
138073
142852
146702
149473
151138
151705
151179
149551
146812
142991
138241
133000
128199
125295
124815
118247
55495.9
36574.6
38453
58173.9
106510
116605
124513
133180
141297
148056
153278
157073
159625
161093
161581
161122
159681
157155
153385
148192
141472
133401
124775
116884
106759
58314.7
38517.8
39166.5
55835
91757.8
106548
118008
126649
132629
136529
138960
140415
141238
141654
141786
141673
141275
140468
139032
136623
132754
126810
118199
106748
91932.1
55936.5
39213.3
36255.8
41457.6
55864
58237.1
55423.2
50165.3
44177.1
38410.8
33367.3
29303.2
26346.2
24556.9
23961.1
24565.6
26362.8
29326.5
33396.9
38448.1
44225.7
50229.2
55502.2
58323.5
55942.5
41507.3
36282.3
31313.8
36265.1
39190.6
38493.4
36550.7
34350.5
32270.5
30457.5
28965.1
27808.5
26987.9
26498.8
26337.3
26501.8
26993.8
27817
28975.8
30470.5
32286.3
34369.6
36572.6
38516.5
39212.1
36281.3
31324
23002.3
29562.7
39844.5
48318.9
54495.4
58913.1
62088
64399.3
66065.5
67251.1
68032
68478.2
68621.7
68477
68037.8
67270.3
66116.2
64475.5
62194.4
59031.8
54619.3
48430.5
39930.2
29611
23032.8
29557.1
-3296.57
-6517.94
-12304.3
-19721.5
-27431.9
-34621.9
-40911.3
-46103.7
-50166.8
-53069
-54819.1
-55414
-54848.3
-53117.4
-50212.1
-46136.9
-40909.6
-34601.2
-27391.1
-19679.9
-12270.2
-6507.76
-3319.13
29601.9
39827.3
-6542.79
10127.3
18614.6
21686.8
22049.7
21146.7
19756.6
18267.8
16940.3
15899
15238.5
15007.5
15227.4
15893.2
16958.8
18342
19891.5
21356.4
22303.5
21955.6
18845
10268.4
-6532.78
39907.6
48288.3
-12361.4
18574.5
36078.1
45064.6
49827.6
52480.7
53970.9
54802.5
55227.5
55430.1
55510.7
55534.3
55527.1
55473.8
55321.6
54960.7
54218.3
52807.3
50224.3
45478.2
36443.4
18810
-12331.4
48398.6
54456.7
-19811.3
21607.5
45020.3
57028.1
63547.8
67473.1
70059.6
71821.3
73030.7
73816.4
74266.9
74427.7
74316.4
73924
73204.2
72077.5
70399
67905.5
64044.8
57548
45480.6
21906.7
-19777.7
54587.7
58866.8
-27547.2
21931.5
49746.9
63509.5
70478
74410.9
76922.5
78682.2
79937.9
80806.4
81331.1
81532.7
81418.2
80980.6
80201.8
79031.9
77364
74932.2
71066.5
64111.7
50278.7
22272.6
-27519.7
59011.1
62039.1
-34771.6
21000.3
52366.4
67416.3
74393.5
77799.6
79698.5
80924.3
81803.3
82433.1
82838.4
83016
82960.8
82673.6
82150.5
81369.6
80228.6
78410.4
75058.7
68089.6
52953.7
21370.7
-34751.9
62191.9
64336.5
-41086.9
19575.8
53848.3
69998.5
76918.1
79713.1
80832.2
81343.6
81653.6
81894
82081
82198.5
82235
82191.2
82075.4
81867.6
81444.1
80396
77652.1
70729.6
54480.1
19968.3
-41072.3
64494.8
65995.2
-46315.4
18077.8
54678.8
71786.8
78709.8
80981.6
81387.4
81193
80919.2
80741.6
80684.7
80730.7
80863.4
81084.5
81398.9
81779.7
82059.5
81723.8
79496
72564.2
55344.9
18488.1
-46301.1
66156.4
67166.8
-50388.2
16749.3
55131.7
73034.1
80018.4
81916.4
81757.2
80977.5
80204.3
79656.8
79379.9
79358.3
79576.3
80031.4
80723.1
81606.9
82469.7
82696.8
80841
73842.5
55821.2
17173
-50369.6
67328.7
67948.1
-53287
15733.6
55374.1
73874.2
80945.8
82609.7
82058.2
80861.1
79715.9
78888.3
78438.7
78361.3
78642
79275.3
80252.8
81507.6
82790.1
83406.4
81784.7
74696.9
56074.6
16165
-53260.5
68108.5
68398.9
-55013
15113.1
55508.1
74384.6
81534.5
83077.4
82309.9
80864.9
79501.1
78500.2
77940.6
77823.9
78138.2
78878.4
80026.7
81504.2
83032.4
83869.3
82367.4
75203.1
56205.3
15545
-54977.3
68555.2
68551.2
-55572.1
14929.9
55588.2
74606.6
81798.3
83321.6
82491.8
80980.7
79548.4
78491.3
77890.7
77753.5
78072.2
78839.2
80038.2
81581.6
83182.7
84081
82604.9
75400.9
56267.3
15353.9
-55527.7
68701.1
68415.2
-54967.4
15195.9
55630.5
74548.8
81742.6
83326.8
82599
81185.7
79841.3
78844
78274
78139
78432.2
79149.8
80275.5
81729
83230.6
84036.1
82499.5
75301.1
56276.4
15603
-54916.5
68556.4
67980.1
-53197.3
15896
55613.2
74195.1
81348.9
83096.1
82615.8
81476.2
80365.6
79543.7
79076.5
78967.7
79211
79803.6
80738.1
81947.3
83176.9
83731.7
82041.8
74887.5
56212.6
16277.2
-53143.1
68110.7
67213.2
-50257.2
16984.7
55476.9
73493.9
80598.4
82607.7
82547.8
81840.4
81106.5
80566.7
80269
80210.4
80382.1
80785.3
81419.7
82238.4
83024.6
83162.2
81208.2
74114.4
56017.7
17332
-50203.4
67331.5
66054.3
-46147.2
18376.4
55113.2
72363.3
79428.3
81837.4
82352.6
82234.4
82001.9
81831.8
81757.5
81768.2
81854
82017.2
82264.1
82564.4
82748
82299.8
79949.8
72899.6
55586.5
18682.7
-46097.8
66159
64406
-40888.1
19923.4
54348.7
70653.9
77728.6
80662
81893.4
82476.5
82825
83076.3
83251.9
83341.1
83334.6
83234.4
83046.2
82748.8
82215.7
81040
78158.4
71103
54747.9
20183.1
-40846.7
64495.9
62115.3
-34552.3
21376.5
52899.4
68104.3
75226.8
78763.6
80758.1
82050.5
82964.2
83609.2
84011.5
84170
84080.3
83740.6
83147
82273.5
81018.1
79067
75572.8
68467.2
53223.1
21586.4
-34521.3
62189.6
58944.7
-27322.5
22308.5
50271.4
64171.5
71265.7
75298.9
77891.5
79699
80988.4
81873.4
82402.6
82595.5
82455.8
81975.4
81131
79873.6
78095.5
75536.4
71536
64454
50521.5
22468.6
-27302.7
59003.4
54529.4
-19601
21951.7
45488.5
57606.7
64215
68214.1
70844.5
72643.1
73871.6
74674.4
75134.9
75296.7
75172.7
74747.4
73974.8
72771.5
70996.9
68393
64418
57816.5
45671.2
22065.5
-19590.8
54573.6
48347.6
-12188.1
18851.3
36446.1
45505.9
50326.4
53009.5
54523.6
55357.9
55793.5
56004.6
56098
56131.4
56122.8
56052.9
55862.9
55446.2
54630.7
53136.5
50470.1
45652.1
36569.9
18925.1
-12184.1
48379.5
39866.7
-6423.73
10313.2
18854.6
21969
22354.7
21464
20058.3
18560.6
17218.1
16178.8
15528.8
15312.5
15543.6
16207.8
17260.1
18614.5
20124.1
21541.8
22441.8
22055.8
18925.4
10352.2
-6424.19
39888.1
29574.2
-3236.71
-6424.74
-12185.8
-19587.4
-27287.5
-34488.7
-40793.1
-46021.6
-50102.8
-53015.6
-54758.9
-55337
-54752.1
-53002.4
-50084.3
-45999.3
-40768.5
-34462.7
-27261.6
-19564.1
-12169.1
-6418.58
-3240.85
29586.8
23003
29571.9
39861.3
48339.9
54521.7
58940.6
62117.6
64416.2
66073
67240.5
68016.4
68460.9
68606.7
68464.3
68023.2
67250.8
66087.1
64434.7
62141
58968.3
54551.4
48367.6
39882.8
29584.9
23011.3
11678.8
19461.2
26599.1
32355.4
36708.8
39924.5
42289.7
44028.4
45293.4
46189.5
46780.8
47116
47220.9
47107.9
46770.8
46185.7
45307.9
44064.9
42348.1
39997.4
36785.9
32426.4
26652.9
19492.2
11699.7
19456.3
12167.1
11767
9525.1
5692.82
1065.76
-3651.53
-8007.05
-11742
-14735.4
-16911.3
-18239.6
-18698.2
-18277.2
-16976
-14808.5
-11810.7
-8052.28
-3673.55
1063.69
5700.67
9531.33
11761.5
12146.8
19484.9
26583.1
11743.4
19624
24927.6
27615
28357.5
27929.6
26927.5
25737.6
24618.9
23718
23135.6
22925.5
23111.6
23683.7
24593.6
25748.7
26987
28048.1
28519.3
27789.2
25074.2
19704.9
11739.1
26634.3
32325.5
9466.34
24884.1
35687.7
42582.8
46754.8
49169.4
50487.8
51151.6
51432.4
51521.8
51530.1
51525.6
51533.6
51539.5
51483.8
51251.4
50657.2
49406.7
47045.6
42886.3
35946.5
25039.6
9475.98
32398.8
36665
5595.09
27519.4
42527
51939.2
57783.6
61481
63869.7
65420.1
66423.5
67042.9
67385.5
67506.2
67426.3
67130.8
66565.8
65630.5
64149.9
61834.2
58187.2
52349.6
42878.5
27734.1
5610.84
36756
39868.2
926.682
28208.2
46641.4
57727.3
64256.9
68222.5
70747
72424.6
73551.3
74292.9
74728.1
74896.7
74809.9
74456.2
73796.4
72746.1
71146.4
68686.8
64765.3
58232.9
47070
28468.2
943.013
39972.3
42219.6
-3834.39
27728.5
49005.2
61382.5
68183.9
71932.5
74096.3
75426.8
76298.4
76875.5
77231.5
77389.1
77352.4
77112.3
76638.4
75858.8
74603.4
72502.4
68787.9
61971.6
49499.2
28024.2
-3818.65
42333.2
43942.5
-8230.04
26681.9
50293.1
63748.9
70699.3
74089.5
75704
76495.9
76922.2
77191.1
77373.1
77485.7
77527.9
77490.7
77346.7
77019.1
76307.1
74748.6
71385.9
64409.4
50840.9
27006.4
-8213.38
44062.9
45194.5
-11998.6
25471.3
50945.1
65307.7
72391
75443.6
76520.8
76749.9
76702.8
76628.1
76609.2
76664.4
76791.6
76978
77191.8
77346.5
77195.4
76174.1
73142.9
66025
51535.7
25819.5
-11978
45319.5
46082.3
-15000.9
24351.3
51244.6
66337.4
73555.9
76356
76990.3
76745.4
76286.4
75906.6
75702.7
75701.4
75902.3
76288.3
76817.6
77389.4
77714.9
77133.7
74353.6
67094.7
51865.6
24717.5
-14973.6
46209.6
46676
-17167.8
23476.7
51370.7
67003.3
74346.4
76984
77309.2
76720.5
75955
75334.9
74979.8
74929.1
75184.4
75726.5
76502.1
77383.7
78056.6
77786.3
75167.7
67782.3
52008.7
23854.7
-17131.8
46803.5
47019.4
-18467.6
22937.4
51432.1
67402.5
74839
77397.2
77548.8
76757.9
75810
75039.6
74587.2
74499.6
74783.4
75417.6
76341.4
77411.9
78290.5
78198
75661.5
68183.3
52072.5
23319.8
-18422.4
47144.8
47136.5
-18887.5
22779.5
51486.5
67584.7
75070.3
77619.2
77727.4
76883.9
75880.6
75061.9
74572
74465
74750.1
75405.9
76373.2
77498.7
78437.4
78392.8
75870.2
68347.6
52114.3
23157.9
-18834
47257.5
47034.6
-18424.6
23016
51550.1
67563.9
75046.6
77651
77846.4
77091.7
76166.3
75400.3
74936.8
74830
75090.6
75700.8
76600.7
77647.4
78498.8
78374.1
75802
68289
52150.3
23381.6
-18365.2
47149.1
46705.7
-17083.1
23630.8
51601.6
67318.2
74750.8
77478.7
77885.3
77365.3
76639.8
76026.7
75652.6
75567.7
75781.8
76279.3
77010.6
77845.2
78463.8
78130
75441.3
67987.7
52159.6
23974.3
-17021.4
46811.9
46125.4
-14877.2
24574.8
51577.7
66790.6
74136.3
77061.2
77811.4
77651.4
77242
76871.2
76644.4
76602.5
76752.9
77083
77550.4
78054.5
78300
77625.8
74744.5
67387.9
52080.3
24887.1
-14817.4
46221.4
45249.3
-11840.4
25754.3
51364.1
65874
73111.6
76315.9
77519.3
77844.3
77848.4
77785.6
77748.6
77765.9
77841
77963.8
78104.7
78173.5
77921
76782.6
73625.5
66386.3
51799.6
26026.8
-11787.4
45333.3
44006.4
-8044.35
27009.4
50772.7
64390.2
71506.3
75051.2
76795
77673.5
78150.4
78435.6
78607.8
78691.5
78688.1
78588.9
78366.9
77944.2
77117.3
75426.7
71922.8
64810.8
51132.8
27234.6
-8003
44076.8
42288.8
-3632.61
28077.9
49509.4
62045.7
69003.9
72894.8
75169.5
76578.6
77494.6
78092.9
78448.8
78588.7
78516.5
78222.1
77674.4
76798.9
75425.9
73189.1
69330.1
62375.6
49791.5
28251.9
-3606.1
42344.6
39937.2
1127.88
28549.4
47124.8
58351
65011.3
69089.1
71702.7
73438.7
74606.3
75370.2
75814.4
75976.9
75867.1
75470.7
74746.1
73608.7
71898.8
69312.1
65256.5
58596.8
47332
28672.8
1139.15
39978.3
36726.6
5775.17
27818
42941.8
52461.3
58399.1
62171.9
64613.8
66205.9
67235.7
67878.3
68236.3
68362.8
68273.2
67949.1
67334.8
66327.3
64754.7
62332.3
58574.2
52633.8
43082.8
27896.7
5774.46
36754.8
32372.4
9605.03
25109.3
35993.6
42957.9
47182.1
49630.7
50971.6
51645.9
51942.9
52048.5
52076.6
52087.7
52100.1
52093.8
52006.9
51725.7
51065.6
49738.3
47298.6
43070.1
36081
25153.1
9597.99
32390.7
26610.8
11829
19760.5
25108.9
27829.8
28591.9
28167.4
27154.5
25957
24833
23942.2
23378.4
23190
23391.8
23968.3
24870.1
26003.4
27209.1
28229.4
28657.8
27891.1
25153.5
19778.6
11820.4
26621.9
19465.6
12202.6
11825.1
9600.8
5779.69
1153.39
-3576.36
-7953.21
-11714.9
-14720.4
-16897.6
-18212.2
-18649.6
-18206
-16885.8
-14704.1
-11695.9
-7933.09
-3556.53
1171.44
5793.75
9608.02
11823.9
12195.7
19472.2
11677.7
19463.4
26604.9
32363.7
36718.1
39933.2
42292.9
44020.2
45273.2
46159
46748.7
47086.8
47197.8
47089.6
46754.4
46167.4
45284.4
44034.4
42310
39952.6
36738.1
32381.4
26617.7
19470.7
11682.7
5115.35
9490.2
13695.9
17276.1
20135.7
22337.8
24010.3
25253.4
26174.8
26819.4
27248.5
27487.8
27560.2
27475.3
27227.5
26802.1
26163
25263.7
24033.3
22377.7
20179.8
17319.3
13729.3
9509.99
5128.79
9485.93
8708.76
9790.92
9188.48
7243.14
4495.45
1445.16
-1511.77
-4158.76
-6324.76
-7936.12
-8932.4
-9283.24
-8974.84
-8009.31
-6417.56
-4247.1
-1592.75
1392.39
4457.83
7222.28
9172.38
9773.55
8687.49
9502.09
13680.8
9768.21
15605.1
19603.1
21841.9
22634.7
22464.4
21742.9
20819.5
19897.3
19140.8
18640.2
18454.6
18608.2
19086.6
19844.1
20781.3
21747.7
22506.8
22718.4
21936.1
19681.6
15640.9
9751.22
13709.9
17246.1
9128.06
19556.2
27347
32754
36213.8
38233
39299.2
39754.9
39884.3
39855.5
39791.2
39759.3
39785.2
39854.5
39899.9
39809.8
39397.5
38390
36405.1
32956
27513.3
19647
9118.92
17290
20087.3
7137.44
21732.1
32687.5
40380.8
45545.8
48912.7
51036.8
52353
53132
53576.5
53803.7
53882.4
53836.8
53645.4
53246.6
52515.4
51259.5
49182
45853.3
40683.8
32938.1
21874.6
7135.08
20145.1
22272.3
4334.45
22457.7
36069.8
45472.6
51696.9
55732.1
58336.4
59997
61053
61700.8
62063.7
62203.1
62137.9
61849.9
61271.9
60284.6
58680.6
56128.7
52114.5
45876.4
36399
22647.1
4337.98
22342.3
23920.5
1233.81
22212.6
38023.2
48770.9
55672.3
59995.9
62677.4
64351.8
65396.1
66044.5
66418.5
66576
66533.8
66269.3
65719.1
64754.1
63146.3
60505.6
56199.8
49266.9
38424.5
22443.5
1243.94
24001
25148.1
-1780.59
21440
39030.9
50856.9
58239.5
62647.4
65224.2
66717.3
67597.3
68125.9
68435.5
68584.3
68586.2
68417.4
68008.7
67222.8
65795.3
63261.8
58859.5
51435.4
39494.5
21707.3
-1762.65
25237
26048.3
-4456.24
20476.3
39466.9
52154.7
59897
64321.3
66720.2
67977.9
68640.4
69010.7
69229.2
69355.5
69405.7
69352.2
69118.7
68560.7
67374.3
65014.5
60594
52799
39981.5
20774
-4429.09
26143.6
26689.8
-6638.25
19552.5
39597.9
52949.2
60971.2
65389.9
67624.2
68665.2
69131.5
69370.2
69497.8
69598.1
69691.1
69742
69651.8
69295.7
68332.7
66139.3
61721.3
53641.5
40149.7
19873.7
-6601.07
26789.2
27120.2
-8236.94
18817.5
39601.3
53428.6
61657.3
66075.7
68192.2
69070.8
69406.3
69503.7
69542.9
69613.6
69737.3
69878.8
69934.6
69721.5
68923.9
66854.7
62437.2
54148.6
40175.5
19154.5
-8189.61
27221.3
27370
-9203.32
18360.8
39587.2
53708.1
62071
66502.9
68551
69343.5
69588.2
69602.3
69583.4
69629.3
69766.4
69956.3
70097.5
69979.2
69281.1
67282
62857.2
54434.8
40168.5
18705.2
-9146.76
27470.4
27456.3
-9513.89
18229.1
39615.1
53848
62274.4
66722.8
68770.5
69540.7
69764.9
69754.5
69712.1
69742.5
69874.2
70074.3
70232.6
70140.2
69466.9
67480.3
63040.3
54561.1
40187.6
18571.9
-9450.06
27553.8
27384.3
-9162.17
18436.1
39701.5
53866.8
62277.1
66759.2
68854.1
69687.4
69957.5
69977.4
69947
69972.4
70084.9
70250.2
70367.6
70224.6
69497.4
67464.3
63002.4
54544.5
40249.4
18767.6
-9094.19
27476.7
27148.2
-8156.19
18964.8
39824.3
53736.8
62060.3
66573
68785.4
69741.1
70121.9
70230.5
70249
70282.7
70361.7
70455.8
70462.5
70199.8
69344.9
67208.5
62718.5
54360.8
40332
19275.1
-8088.23
27233.2
26730.1
-6521.25
19764.7
39917.6
53391
61543.9
66103.6
68465.8
69611
70140.3
70383.3
70482.8
70536.8
70573.9
70563.3
70413.9
69982.7
68933
66641.4
62119.6
53941.8
40370.9
20043.7
-6458.28
26805.9
26098.8
-4308.59
20741.4
39864.2
52699.2
60604.3
65189.4
67739.2
69110.5
69837.8
70228.2
70426.4
70510.8
70503.2
70377.8
70058.8
69404.8
68109.1
65627.2
61079.4
53164.6
40250.4
20980.1
-4255.87
26163.4
25205.5
-1611.54
21739.8
39475.3
51461.9
59013.1
63590.2
66309
67909.3
68851.8
69403.2
69704.4
69822
69772.7
69533.7
69037.7
68148.1
66600
63931.8
59389.8
51834.5
39787.3
21931.3
-1573.5
25257.5
23980.2
1410.62
22521.1
38474.8
49375.3
56436
60905.5
63713
65473.4
66573.7
67248.2
67625.2
67766
67686
67363.3
66733.4
65669.1
63942
61167.4
56722.9
49659.8
38711.9
22663.5
1432.02
24019
22328.4
4501.72
22744.4
36482.3
46015.7
52365.5
56519.2
59211.6
60942.3
62041.2
62717.3
63092.9
63229
63142.3
62810.6
62169.1
61095.5
59385.4
56713.4
52575.1
46221.1
36650.5
22840.4
4507.59
22354.7
20133.8
7277.44
21967.1
33019.6
40806.4
46060
49495.4
51681.5
53035
53848.9
54319.2
54566.6
54654.7
54601.9
54386
53940.5
53144.3
51804.6
49631.5
46204.7
40945.2
33128.9
22023.7
7271.77
20149.7
17278.1
9226.7
19718.3
27570.3
33033
36533.6
38588
39667.7
40144.4
40288.1
40282.6
40243
40231
40265.3
40325.1
40346.8
40214.8
39747.4
38675.8
36625.7
33118.8
27633.7
19745.4
9215.08
17286.5
13696.8
9820.92
15689.7
19716.3
21975
22780.1
22601.9
21877.1
20939.8
20023.2
19280.3
18804.5
18645
18817
19304.2
20056.1
20979.3
21921.4
22650
22829.2
22018.6
19745
15696.9
9808.23
13700.3
9488.74
8723.64
9815.29
9218.93
7275.93
4518.23
1455.68
-1531.84
-4193.01
-6371.83
-7976.03
-8954.14
-9280.79
-8948.53
-7965.49
-6357.77
-4177.31
-1516.23
1470.02
4530.28
7284.05
9220.93
9810.1
8713.91
9490.05
5112.53
9485.71
13689.5
17267.7
20123
22321.4
23981
25216.5
26121
26763.2
27191.4
27437.2
27518.1
27439.6
27196.2
26770
26129.7
25227.1
23993.3
22335
20136.5
17279
13696.9
9488.88
5114.77
2569.45
5092.49
7669.39
9976.46
11907.1
13456.4
14665.6
15588.5
16274.7
16761.6
17082.9
17260.7
17312.5
17245
17057.5
16733.5
16252.2
15579.4
14671.6
13475.5
11934.3
10005.2
7693.5
5107.72
2579.68
5088.82
5845.94
7363.78
7660.14
6914.6
5457.42
3638.13
1743.41
-26.6071
-1526.33
-2667.76
-3387.08
-3646.94
-3429.41
-2745.48
-1623.67
-126.475
1652.77
3568.89
5410.05
6885.73
7643.69
7352.21
5834.54
5102.47
7655.98
7342.95
12000.1
15369.5
17485.9
18511.7
18733.8
18449.4
17914.2
17311.6
16782.6
16418.2
16277.3
16381.7
16721.3
17241.2
17854
18419.8
18740.7
18553.4
17546.1
15424.9
12030.5
7337.79
7680.9
9948.25
7603.21
15323.2
21350.3
25796.9
28831.3
30730.8
31805.2
32324.8
32516.4
32537.3
32501.8
32477.4
32491.1
32521.7
32510.7
32345.7
31863
30834.1
28969.7
25947.5
21481.2
15401.8
7608.93
9986.75
11860.8
6809.96
17375.6
25726.6
32011.2
36515.3
39597.6
41613.5
42877.9
43628.6
44049.1
44258.6
44328.3
44281.7
44100.8
43713.3
43002.1
41785
39811.3
36759.5
32257.7
25935.4
17504.1
6827.43
11912.8
13388.8
5296.89
18325.3
28678.2
36432.3
41984.9
45824
48403.3
50084.8
51152
51797.3
52150
52280.1
52212.8
51921.7
51336.4
50326.2
48694.2
46157.7
42339.8
36776.2
28965
18502.3
5326.39
13453.5
14574.7
3417.98
18469
30496.5
39434.9
45748.8
50054.1
52911.5
54769.6
55949.5
56675.5
57082.7
57244
57181.9
56871.2
56230.9
55121.8
53321.1
50501.5
46210.6
39872.7
30856.7
18691.3
3460.15
14650.8
15475.3
1467.53
18119.4
31503.4
41393
48273.7
52862.3
55831.2
57707.4
58874.6
59585.5
59989
60157.1
60116.6
59839.9
59237.3
58155.8
56341.1
53411.1
48830
41914
31928.9
18382
1522.66
15561.1
16144.1
-338.777
17539.5
31986.6
42624.5
49933
54701.6
57691.1
59513.5
60610.1
61278.6
61659.2
61827.4
61813.2
61578.7
61033.8
60032.2
58278.7
55328.8
50565.8
43213.7
32465.7
17836.2
-270.723
16237.4
16624.4
-1854.08
16926.6
32170.6
43376.1
51004.1
55890.3
58867.3
60617.6
61658.8
62323.4
62675
62837
62839.6
62636.1
62107.6
61178.3
59503.9
56571.9
51691
44014.9
32689.5
17249.5
-1773.9
16722.8
16948.2
-2984.49
16415.9
32216.2
43823.2
51678.3
56645.7
59605.7
61308.7
62342.3
62915
63217.6
63363.4
63380.6
63232.8
62792.2
61875.2
60263.4
57354.7
52396.3
44491.7
32759.7
16756.5
-2893.53
17049.4
17137.3
-3673.84
16093.6
32227.9
44080.9
52080
57101.7
60058.3
61734.7
62742.5
63277.6
63552.3
63680.9
63699.4
63568.3
63171
62286.4
60710.7
57814.1
52805
44758.7
32780.6
16442.8
-3574.17
17238.6
17203.7
-3893.02
16006.1
32263.5
44213.1
52275.4
57331.1
60298.6
61977.2
62993.6
63516.8
63777
63891.8
63902
63769.3
63379.9
62501.8
60927.8
58023.5
52985
44879.3
32809.6
16354.4
-3787.51
17302.8
17151.2
-3633.61
16167
32339.7
44237
52283.8
57354.7
60357.6
62077.9
63116.3
63661.4
63925.1
64031.9
64026.8
63874.6
63448.4
62541.3
60934.9
58002.1
52954.3
44871.2
32863
16504.3
-3526.04
17245.8
16975.3
-2905.88
16558.9
32433.5
44125.9
52075
57141.9
60200.8
61984.7
63084.2
63662.3
63939.6
64043.3
64013.1
63812.1
63338.2
62366.4
60694.5
57715.9
52682.7
44707.6
32918
16874.7
-2800.99
17063.2
16663.1
-1741.07
17130.9
32480.1
43805.9
51569
56599.7
59717.7
61594.2
62685.9
63369.8
63686.6
63796.5
63742.1
63491.9
62877.2
61876.7
60111.7
57078
52091.8
44317
32911.1
17415
-1644.25
16742
16192
-198.008
17791.9
32366.2
43150.1
50621.4
55560.3
58713.4
60667.6
61853.3
62537.6
62892.9
63015.8
62934.9
62613.2
61984.9
60879.3
59010.7
55936.5
51046.5
43576.4
32731.7
18035
-114.678
16259.9
15528.9
1625.62
18399.4
31921.2
41966.2
49016.6
53777.9
56900
58895.8
60139.3
60880.4
61275.8
61412.4
61316.6
60957
60256.6
59064.5
57126.7
54063
49346
42303.5
32214.6
18595.6
1691.34
15584.4
14629
3579.11
18750.3
30910.8
39995.8
46464.2
50918.1
53903.7
55854.9
57095.6
57851.8
58263.1
58407
58305.4
57931.3
57208.4
55998.8
54081.2
51132.8
46710.6
40250.3
31133.5
18898.5
3625.91
14671.7
13438.3
5444.64
18578.9
29046.3
36921.3
42596
46548
49217.4
50967.3
52079.2
52754
53120.5
53248.7
53158.8
52825.8
52177.4
51085.5
49353.9
46706.1
42774.1
37104.2
29205.6
18683.2
5474.18
13469.1
11900.5
6929.45
17576.8
26013.1
32383.6
36968.1
40119
42190.4
43493
44276.3
44723.2
44953.7
45033.7
44982.8
44777.6
44349.8
43579.7
42288.1
40229.5
37090.5
32507.8
26119.5
17644.3
6945.51
11921.2
9974.75
7684.55
15457.5
21537.2
26031.5
29105.1
31032.7
32123.6
32659.4
32866.6
32910.9
32901.4
32898.3
32920.2
32946.3
32914.4
32715.8
32187
31103.9
29183.3
26109.6
21602.4
15496.8
7691.74
9987.71
7668.85
7385.02
12068.1
15460.9
17594.8
18627.4
18845.2
18552.4
18008.2
17410.2
16897.6
16559.8
16445.7
16570.4
16917.6
17437.1
18039.7
18587.5
18884.3
18669.8
17636.5
15494.7
12086.9
7386.95
7676.14
5091.1
5857.56
7383.05
7684.77
6939.28
5474.23
3638.03
1720.05
-66.1825
-1573.5
-2705.86
-3404.78
-3639.3
-3400.02
-2697.06
-1562.05
-53.6889
1732.47
3650.18
5486.3
6950.69
7693.73
7387.49
5857.29
5094.81
2567.49
5089.38
7665.17
9970.47
11898.1
13441.3
14640.9
15552
16227.4
16710.4
17033.8
17219.6
17280.9
17221.7
17037.7
16715.9
16234.3
15560.3
14650.6
13452.5
11909.8
9981.25
7673.23
5093.89
2570.03
1451.94
3020.21
4694.08
6254.5
7611.68
8740.87
9644.98
10355.8
10886.1
11270.7
11522.3
11661.8
11700.4
11647.5
11496.8
11241.9
10863.2
10340.1
9645.41
8750.55
7630.51
6276.13
4713.77
3033.7
1460.71
3016.95
4062.12
5551.66
6237.77
6171.12
5531.83
4551.07
3416.93
2304
1315.36
543.741
45.6057
-137.581
6.40985
474.123
1226.76
2209.72
3335.38
4482.65
5487.69
6144.56
6226.44
5548.12
4060.03
3030.3
4682
5532.71
9246.8
12116.8
14110.2
15293.1
15823.6
15912.5
15724.9
15423.9
15116.1
14888.4
14793.2
14856.3
15058.4
15356.4
15666.5
15873
15820.1
15316.3
14154.6
12163.3
9279.11
5539.38
4705.81
6228.41
6185.09
12073.1
16874.9
20607.3
23315.3
25146.9
26279.4
26923.2
27234.4
27355.4
27382.5
27381.3
27371
27339.6
27224
26930.5
26321.1
25220
23423.1
20727.7
16985.9
12148.4
6204.63
6264.66
7568.08
6071.98
14004.4
20537.9
25711.1
29622.6
32434.9
34372.9
35634.7
36419.8
36871.9
37102.6
37176.5
37122
36912.7
36487.6
35736.1
34508.1
32610.6
29821.3
25917.4
20718.9
14125.9
6105.73
7617.04
8674.62
5378.83
15109
23163.1
29535.7
34367.8
37896.9
40371.4
42051.6
43140.1
43807.9
44170.7
44301.7
44222.8
43913.1
43295.4
42252.8
40617.9
38175
34669.4
29830.5
23416.5
15277.4
5427.6
8735.89
9556.98
4333.91
15562.1
24903.3
32263.6
37811.2
41832.3
44656.4
46568.7
47820.9
48597.4
49027.9
49187
49108.6
48762
48059.8
46869.4
45004.3
42217.7
38208.8
32646.9
25226.8
15775.7
4398.5
9629.79
10241
3147.83
15574
25964.9
34126.1
40220.3
44592.5
47615.7
49641.5
50949.7
51758.1
52205.6
52378.9
52313.7
51973.6
51259.2
50024.7
48055.1
45066.7
40707.8
34587.8
26351.8
15828.8
3228.28
10323.9
10756.3
1989.78
15340
26555.2
35345.4
41860.8
46471.8
49609.7
51670.2
52989.2
53778
54240.4
54428
54369.8
54014
53334.2
52111.8
50115.5
47018.6
42418.2
35873
26994.9
15629.8
2085.36
10847.5
11130.2
985.007
15017.5
26851
36116.9
42942.5
47720.1
50914
52979.3
54238.1
55070.5
55556.2
55747.8
55680.9
55326
54592.1
53430
51457.3
48313.9
43550.9
36692
27330.3
15334.6
1093.99
11227.3
11384.1
219.722
14722.4
26987.3
36587.9
43631.5
48520.1
51739
53771.6
55068.4
55916.9
56380
56565.3
56504.9
56151
55412.8
54224.8
52288.6
49135.9
44268.5
37192
27491.6
15057.7
339.739
11484.7
11533.4
-251.168
14531.3
27056.6
36862.2
44042.1
48997.4
52229.4
54266.4
55603.3
56438.2
56887.3
57055.4
56987
56636.7
55911.2
54709.3
52777.4
49617.1
44686
37476
27570.6
14875.5
-123.131
11634.8
11586.8
-397.929
14487.4
27111.2
36999.6
44237.5
49228.4
52472.2
54542.2
55888.9
56741.6
57177.4
57328
57250
56905.3
56162.2
54953.8
53012.9
49835.9
44870.1
37603.1
27619.3
14830.5
-265.511
11686.4
11546.9
-211.805
14603.1
27166.3
37014.8
44241
49239.7
52520.2
54612.9
56000.4
56841.8
57271.4
57413.1
57324.2
56945.1
56209.7
54975
53009.7
49809.4
44836.9
37588.6
27652.1
14934.6
-79.4408
11642.4
11410.2
296.084
14861.1
27198.6
36883.1
44017.5
49004
52316.8
54465.5
55818.1
56695.7
57120.5
57255.9
57141.3
56767.8
55954.6
54723.5
52724.5
49498.1
44553.8
37405.7
27646.7
15170.4
423.3
11499.1
11167
1093.32
15213.4
27148.3
36531.1
43490.1
48410.2
51759.7
53932.1
55301.9
56137.1
56577.2
56709.3
56590.6
56137.1
55367.7
54118
52055.2
48810.5
43942.4
36985.9
27544.1
15490.5
1210.03
11247.1
10800.9
2121.91
15577.1
26913.2
35844.5
42516.5
47300.1
50608.9
52825.9
54223.1
55041.6
55474.3
55603.6
55462.2
55035.4
54243
52924.7
50818.3
47600.5
42877
36218.2
27246.6
15814
2223.34
10870.5
10289.3
3291.99
15830.3
26349.4
34657
40915.6
45454.2
48636.6
50794.5
52191.5
53027.5
53463.1
53601.5
53465.8
53028.8
52217.9
50877.1
48789.5
45674.1
41187.3
34949.3
26616
16022.9
3375.23
10347.3
9604.1
4475.6
15811.1
25273
32768.9
38459.9
42626.1
45572.4
47582.6
48899.4
49706.5
50138.8
50281.2
50157.8
49740.1
48953.7
47667.2
45692.9
42788.1
38660.2
32988.1
25476.8
15960.4
4540.66
9650.66
8715.52
5503.39
15325.1
23479.8
29960.7
34905.9
38535.7
41099.3
42840.4
43973.7
44668
45042.9
45169
45067.7
44713.6
44036.7
42919.2
41195.7
38655.4
35050.8
30119.9
23629.4
15436
5552.54
8751.75
7599.13
6168.24
14168.8
20775
26023.3
30004.2
32881.5
34862.6
36162
36972.5
37447.8
37696
37779.6
37717.7
37487.7
37025.6
36224.3
34934.2
32966.7
30105.7
26134.7
20880.3
14247.9
6204.64
7626.48
6247.88
6247.72
12178.4
17023.4
20795.5
23538.3
25388.8
26539.3
27189.1
27514.6
27654.3
27704.5
27720.4
27719.5
27682
27551.1
27231.4
26587.3
25445.4
23605.4
20869.3
17093.5
12232
6274.1
6267.74
4690.78
5563.87
9298.29
12186.8
14194
15379.4
15908
15980.9
15788
15486
15192.9
14988.8
14918.9
14997.5
15209
15507.1
15812.3
16008.3
15940.2
15418
14236.9
12228.3
9330.78
5581.47
4703.96
3018.28
4070.9
5566.55
6256.71
6188.7
5542.73
4541.64
3390.78
2256.37
1263.07
498.584
19.8061
-141.751
23.7489
505.714
1272.05
2265.93
3400.5
4552.34
5555.71
6204.29
6273.35
5581.15
4080.47
3025.68
1450.68
3018.51
4691.78
6250.58
7604.97
8726.97
9623.93
10319.9
10843.6
11221.9
11476.6
11623.6
11672.1