# Force and moment coefficients
# dragDir     : (0.000000e+00 0.000000e+00 -1.000000e+00)
# sideDir     : (-1.000000e+00 0.000000e+00 0.000000e+00)
# liftDir     : (0.000000e+00 1.000000e+00 0.000000e+00)
# rollAxis    : (0.000000e+00 0.000000e+00 -1.000000e+00)
# pitchAxis   : (-1.000000e+00 0.000000e+00 0.000000e+00)
# yawAxis     : (0.000000e+00 1.000000e+00 0.000000e+00)
# magUInf     : 5.000000e+02
# lRef        : 1.000000e+00
# Aref        : 3.140000e+00
# CofR        : (0.000000e+00 0.000000e+00 0.000000e+00)
#
# Time        	Cd            	Cd(f)         	Cd(r)         	Cl            	Cl(f)         	Cl(r)         	CmPitch       	CmRoll        	CmYaw         	Cs            	Cs(f)         	Cs(r)         
0.01          	1.198111e+00	5.914241e-01	6.066866e-01	-4.466064e-03	6.817032e-03	-1.128310e-02	9.050064e-03	-7.631265e-03	-7.800696e-03	7.058462e-03	-4.271465e-03	1.132993e-02
