# Force and moment coefficients
# dragDir     : (0.000000e+00 0.000000e+00 1.000000e+00)
# sideDir     : (1.000000e+00 0.000000e+00 0.000000e+00)
# liftDir     : (0.000000e+00 1.000000e+00 0.000000e+00)
# rollAxis    : (0.000000e+00 0.000000e+00 1.000000e+00)
# pitchAxis   : (1.000000e+00 0.000000e+00 0.000000e+00)
# yawAxis     : (0.000000e+00 1.000000e+00 0.000000e+00)
# magUInf     : 5.000000e+02
# lRef        : 3.000000e+00
# Aref        : 1.000000e-01
# CofR        : (0.000000e+00 0.000000e+00 0.000000e+00)
#
# Time        	Cd            	Cd(f)         	Cd(r)         	Cl            	Cl(f)         	Cl(r)         	CmPitch       	CmRoll        	CmYaw         	Cs            	Cs(f)         	Cs(r)         
100           	3.441022e+01	1.717243e+01	1.723779e+01	6.454567e-01	6.372042e-01	8.252457e-03	3.144759e-01	-3.268166e-02	1.641883e-01	2.414655e-01	2.849211e-01	-4.345554e-02
200           	3.313973e+01	1.654058e+01	1.659915e+01	2.927753e-01	-2.806701e-01	5.734455e-01	-4.270578e-01	-2.928820e-02	1.375104e-01	1.615648e-01	2.182928e-01	-5.672804e-02
300           	3.282033e+01	1.639165e+01	1.642867e+01	3.355257e-01	1.341315e-01	2.013941e-01	-3.363131e-02	-1.850953e-02	6.523790e-02	-4.303101e-02	4.372240e-02	-8.675340e-02
400           	3.283820e+01	1.642301e+01	1.641519e+01	3.020886e-01	-6.923065e-02	3.713193e-01	-2.202750e-01	3.910245e-03	-2.456116e-03	-7.808013e-02	-4.149618e-02	-3.658395e-02
430           	3.283521e+01	1.641653e+01	1.641868e+01	2.351904e-01	7.684927e-02	1.583411e-01	-4.074591e-02	-1.077112e-03	-9.379382e-02	-1.092597e-01	-1.484237e-01	3.916397e-02
