/*--------------------------------*- C++ -*----------------------------------*\
| =========                 |                                                 |
| \\      /  F ield         | OpenFOAM: The Open Source CFD Toolbox           |
|  \\    /   O peration     | Version:  2412                                  |
|   \\  /    A nd           | Website:  www.openfoam.com                      |
|    \\/     M anipulation  |                                                 |
\*---------------------------------------------------------------------------*/
FoamFile
{
    version     2.0;
    format      ascii;
    arch        "LSB;label=32;scalar=64";
    class       volVectorField;
    location    "0.006";
    object      U;
}
// * * * * * * * * * * * * * * * * * * * * * * * * * * * * * * * * * * * * * //

dimensions      [0 1 -1 0 0 0 0];

internalField   nonuniform List<vector> 
124215
(
(5.03897e-12 5.03897e-12 -500)
(1.28156e-13 5.04565e-12 -500)
(3.96221e-22 5.04565e-12 -500)
(1.17827e-24 5.04565e-12 -500)
(5.75381e-30 5.04565e-12 -500)
(-1.50653e-29 5.04565e-12 -500)
(-2.22268e-24 5.04565e-12 -500)
(-2.14196e-14 5.03685e-12 -500)
(-3.23916e-13 4.76242e-12 -500)
(-7.08375e-13 3.76563e-12 -500)
(2.8185e-13 3.63679e-12 -500)
(8.80709e-13 4.63964e-12 -500)
(9.06225e-21 5.04565e-12 -500)
(2.0572e-24 5.04565e-12 -500)
(4.25745e-29 5.04565e-12 -500)
(-5.70015e-30 5.04565e-12 -500)
(-1.17826e-24 5.04565e-12 -500)
(-3.96221e-22 5.04565e-12 -500)
(-6.60771e-15 5.04565e-12 -500)
(-5.16044e-12 5.03897e-12 -500)
(5.04565e-12 1.28545e-13 -500)
(1.21414e-13 1.21414e-13 -500)
(1.02392e-23 1.21414e-13 -500)
(2.69893e-25 1.21414e-13 -500)
(3.56452e-32 1.21414e-13 -500)
(-2.67941e-29 1.21414e-13 -500)
(-2.08318e-24 1.21414e-13 -500)
(-3.63635e-15 1.2136e-13 -500)
(-5.99672e-13 3.20776e-13 -500)
(-3.24311e-13 5.13299e-13 -500)
(4.89848e-13 5.29174e-13 -500)
(4.1205e-13 3.90591e-13 -500)
(3.33963e-23 1.21414e-13 -500)
(1.30445e-24 1.21414e-13 -500)
(1.97654e-31 1.21414e-13 -500)
(-2.40773e-32 1.21414e-13 -500)
(-2.69892e-25 1.21414e-13 -500)
(-1.02394e-23 1.21414e-13 -500)
(1.58299e-15 1.21414e-13 -500)
(-5.16886e-12 1.28545e-13 -500)
(5.04565e-12 8.16105e-22 -500)
(1.21414e-13 2.68859e-22 -500)
(3.15352e-21 2.29765e-20 -500)
(2.70201e-25 2.29765e-20 -500)
(1.24478e-29 2.29765e-20 -500)
(-2.4702e-29 2.29765e-20 -500)
(-6.64585e-25 2.29765e-20 -500)
(5.00522e-15 2.30107e-20 -500)
(-1.25246e-13 1.80729e-14 -500)
(-5.10808e-13 -1.39514e-13 -500)
(2.36499e-13 2.32138e-13 -500)
(7.2624e-13 5.04525e-14 -500)
(4.03439e-22 2.29762e-20 -500)
(4.9514e-25 2.29765e-20 -500)
(5.78081e-30 2.29765e-20 -500)
(-1.24331e-29 2.29765e-20 -500)
(-2.70048e-25 2.29765e-20 -500)
(-3.15352e-21 2.29765e-20 -500)
(1.58299e-15 2.6886e-22 -500)
(-5.16886e-12 8.16105e-22 -500)
(5.04565e-12 2.25073e-23 -500)
(1.21414e-13 9.07407e-24 -500)
(3.15352e-21 9.08673e-24 -500)
(2.70201e-25 9.08673e-24 -500)
(1.24451e-29 9.08673e-24 -500)
(-8.82087e-30 9.08673e-24 -500)
(-9.79277e-25 9.0868e-24 -500)
(-1.92806e-14 -6.03869e-15 -500)
(-6.65801e-13 -1.86524e-13 -500)
(-9.89881e-14 -8.55881e-13 -500)
(6.94357e-13 -1.1441e-13 -500)
(1.16702e-14 6.48758e-15 -500)
(-4.99093e-16 -7.85637e-25 -500)
(2.27123e-24 9.08675e-24 -500)
(6.0804e-30 9.08673e-24 -500)
(-1.24269e-29 9.08673e-24 -500)
(-2.70048e-25 9.08673e-24 -500)
(-3.15352e-21 9.08673e-24 -500)
(1.58299e-15 9.07407e-24 -500)
(-5.16886e-12 2.25073e-23 -500)
(5.04565e-12 4.36532e-29 -500)
(1.21414e-13 8.89667e-30 -500)
(3.15352e-21 8.53691e-28 -500)
(2.70201e-25 8.52977e-28 -500)
(1.24314e-29 8.53628e-28 -500)
(-2.16993e-29 8.53111e-28 -500)
(2.99515e-16 3.51574e-28 -500)
(-6.59151e-14 -6.03869e-15 -500)
(-1.32032e-12 -1.17439e-13 -500)
(-6.31146e-13 -4.93608e-13 -500)
(1.15008e-12 -5.39535e-13 -500)
(7.6909e-13 -5.80028e-14 -500)
(-1.27062e-17 2.5898e-23 -500)
(1.23325e-24 8.09192e-28 -500)
(1.99501e-31 8.52591e-28 -500)
(-1.24305e-29 8.52908e-28 -500)
(-2.70048e-25 8.53699e-28 -500)
(-3.15352e-21 8.53064e-28 -500)
(1.58299e-15 7.80816e-30 -500)
(-5.16886e-12 4.38569e-29 -500)
(5.04565e-12 -1.28643e-27 -500)
(1.21414e-13 8.42307e-28 -500)
(3.15352e-21 -5.40328e-28 -500)
(2.70201e-25 -1.31416e-27 -500)
(1.24413e-29 -1.01165e-27 -500)
(-3.35257e-29 -7.2499e-28 -500)
(-2.72456e-24 -3.92709e-28 -500)
(-5.00815e-14 1.0382e-22 -500)
(-1.38425e-12 3.47453e-14 -500)
(-5.90734e-13 1.73651e-13 -500)
(1.18295e-12 -8.5571e-14 -500)
(7.13314e-13 -4.37984e-14 -500)
(1.33473e-14 -4.67862e-23 -500)
(2.25134e-24 -2.05065e-27 -500)
(1.48011e-29 -1.40183e-27 -500)
(-1.2422e-29 -1.49493e-27 -500)
(-2.70048e-25 -1.71097e-28 -500)
(-3.15352e-21 -8.91185e-28 -500)
(1.58299e-15 -3.78612e-28 -500)
(-5.16886e-12 -1.28109e-27 -500)
(5.04565e-12 -8.08416e-23 -500)
(1.21414e-13 4.6473e-24 -500)
(3.15352e-21 -3.02647e-23 -500)
(2.70184e-25 -5.77882e-23 -500)
(3.41613e-29 -3.01528e-23 -500)
(-3.10847e-29 -4.8141e-23 -500)
(-1.56413e-24 -1.50814e-23 -500)
(-4.02375e-14 2.29775e-24 -500)
(-1.13653e-12 4.20606e-14 -500)
(-7.23534e-13 1.32021e-13 -500)
(9.53962e-13 -4.39205e-13 -500)
(8.12935e-13 -5.64633e-14 -500)
(1.40263e-15 -9.51143e-24 -500)
(2.50276e-24 -1.32962e-22 -500)
(2.79809e-29 -7.80956e-23 -500)
(-1.88963e-30 -7.77349e-23 -500)
(-2.70048e-25 1.74547e-16 -500)
(-3.15352e-21 -5.06467e-23 -500)
(1.58299e-15 -5.04014e-23 -500)
(-5.16886e-12 -7.21817e-23 -500)
(5.0405e-12 -1.94048e-14 -500)
(1.21387e-13 1.86398e-15 -500)
(5.13779e-21 6.59618e-15 -500)
(-1.48231e-15 -1.32794e-14 -500)
(-9.55157e-16 -4.25068e-14 -500)
(-1.92634e-15 -3.10075e-14 -500)
(3.51261e-19 1.39741e-15 -500)
(-7.16009e-15 1.70239e-15 -500)
(-1.16983e-12 4.07803e-14 -500)
(-1.06357e-12 2.06244e-13 -500)
(9.0944e-13 -2.45769e-13 -500)
(1.32404e-12 -2.4465e-14 -500)
(-5.83615e-20 3.13218e-15 -500)
(-1.02175e-16 -4.77101e-15 -500)
(3.61743e-21 1.21728e-16 -500)
(-8.02757e-16 -3.14565e-14 -500)
(5.17833e-15 -6.69873e-14 -500)
(4.74696e-15 -1.07642e-14 -500)
(1.01896e-15 1.37493e-16 -500)
(-5.1684e-12 -2.78815e-14 -500)
(4.79758e-12 -3.87906e-13 -500)
(3.12201e-13 -1.99883e-13 -500)
(-5.40602e-14 -2.06348e-13 -500)
(-8.75635e-14 -8.28282e-13 -500)
(-1.11782e-14 -9.81801e-13 -500)
(-3.63282e-14 -7.14876e-13 -500)
(2.22576e-14 -1.16944e-12 -500)
(1.13891e-14 -3.56126e-13 -500)
(-7.98546e-13 -1.00827e-12 -500)
(-8.13894e-13 9.99855e-14 -500)
(6.22553e-13 6.24004e-13 -500)
(1.06354e-12 -9.14611e-13 -500)
(-3.20777e-14 -2.1683e-13 -500)
(-1.57631e-13 -1.22301e-12 -500)
(1.37546e-15 -1.25561e-12 -500)
(-4.69144e-14 -1.48858e-12 -500)
(1.49091e-13 -1.82224e-12 -500)
(1.49489e-13 -4.11607e-13 -500)
(-1.00961e-13 -5.17309e-13 -500)
(-5.00595e-12 -1.29675e-12 -500)
(3.88714e-12 -1.03532e-12 -500)
(6.49122e-13 -7.9762e-13 -500)
(-4.64197e-13 -3.05163e-13 -500)
(-6.7218e-13 -4.27297e-13 -500)
(4.85728e-14 -1.54104e-13 -500)
(-5.90964e-14 -1.2859e-12 -500)
(2.25767e-13 -5.51905e-13 -500)
(-8.62178e-14 -3.51792e-13 -500)
(-4.4404e-13 -1.48276e-13 -500)
(7.17298e-13 3.98842e-13 -500)
(-1.28438e-13 1.36179e-13 -500)
(1.93301e-14 -9.05502e-13 -500)
(-2.01108e-14 -6.25382e-13 -500)
(-8.67708e-13 -5.99896e-13 -500)
(-2.40993e-13 1.67666e-14 -500)
(-4.02403e-13 -4.42627e-13 -500)
(8.51753e-13 -9.22406e-13 -500)
(9.6031e-13 -2.57833e-13 -500)
(-7.96307e-13 -7.38038e-13 -500)
(-3.35366e-12 -8.40666e-13 -500)
(3.04686e-12 3.13656e-13 -500)
(1.04214e-12 2.71081e-13 -500)
(3.99001e-13 2.47898e-13 -500)
(7.22268e-14 7.77683e-13 -500)
(-8.77046e-13 8.24663e-13 -500)
(-2.98635e-13 7.58829e-13 -500)
(9.09124e-13 9.58086e-13 -500)
(1.79547e-13 4.59222e-13 -500)
(-8.85088e-14 8.6046e-13 -500)
(-6.00404e-13 -1.6688e-13 -500)
(-5.18658e-13 -2.94432e-13 -500)
(3.40235e-13 8.34186e-13 -500)
(3.6122e-13 3.99747e-13 -500)
(6.08079e-13 9.45404e-13 -500)
(4.42792e-14 1.14618e-12 -500)
(-8.75593e-13 1.30279e-12 -500)
(2.58108e-13 1.55676e-12 -500)
(1.9441e-13 5.44206e-13 -500)
(-1.02529e-12 5.56543e-13 -500)
(-3.22843e-12 1.07863e-12 -500)
(4.59233e-12 1.31754e-12 -500)
(4.35432e-13 8.60368e-13 -500)
(2.8554e-14 1.94905e-13 -500)
(1.74465e-15 3.62013e-13 -500)
(-1.30402e-13 1.41229e-13 -500)
(-2.86183e-14 1.59457e-12 -500)
(1.05852e-13 4.38229e-13 -500)
(3.82453e-15 3.64718e-13 -500)
(-1.0479e-12 2.4526e-13 -500)
(-7.62472e-13 -6.42941e-14 -500)
(8.62015e-13 3.89994e-13 -500)
(7.2837e-13 1.03145e-12 -500)
(4.99878e-14 6.25285e-13 -500)
(1.06056e-13 8.12903e-13 -500)
(5.37385e-14 -2.01337e-13 -500)
(-2.12977e-13 5.97224e-13 -500)
(3.87899e-15 1.09453e-12 -500)
(6.32329e-14 2.22757e-13 -500)
(-9.99463e-14 7.98781e-13 -500)
(-4.93686e-12 1.12132e-12 -500)
(5.04565e-12 4.97246e-20 -500)
(1.21414e-13 1.21512e-15 -500)
(3.15194e-21 3.02593e-16 -500)
(1.74184e-24 4.58497e-20 -500)
(-1.41151e-15 5.862e-15 -500)
(8.55953e-25 3.40063e-20 -500)
(-2.85431e-24 3.15894e-15 -500)
(1.02853e-15 7.44162e-22 -500)
(-3.71045e-13 -1.28895e-14 -500)
(-5.41051e-13 -6.08984e-14 -500)
(5.1412e-13 1.32208e-13 -500)
(5.33112e-13 5.0662e-14 -500)
(1.48235e-14 5.95666e-21 -500)
(1.88355e-16 1.5053e-14 -500)
(-9.2559e-25 -6.99331e-15 -500)
(6.70885e-25 -2.94611e-16 -500)
(1.84218e-24 2.0804e-20 -500)
(-3.15361e-21 3.57487e-15 -500)
(1.58299e-15 1.21513e-15 -500)
(-5.16886e-12 -1.64749e-16 -500)
(5.04565e-12 9.93763e-23 -500)
(1.21414e-13 2.02933e-23 -500)
(3.15352e-21 6.80275e-23 -500)
(2.70241e-25 6.28052e-23 -500)
(3.04358e-29 2.81137e-23 -500)
(-2.69156e-29 2.08504e-23 -500)
(-5.37692e-25 2.18833e-23 -500)
(2.60048e-15 4.10065e-23 -500)
(-1.37227e-12 -7.19014e-14 -500)
(-6.17633e-13 -4.28779e-13 -500)
(1.17369e-12 2.36229e-13 -500)
(6.3051e-13 3.81044e-14 -500)
(1.29624e-14 4.8342e-23 -500)
(1.51984e-24 4.45665e-23 -500)
(-7.02066e-30 3.04193e-23 -500)
(-1.23016e-29 5.04468e-23 -500)
(-2.70045e-25 3.94844e-23 -500)
(-3.15352e-21 2.2977e-23 -500)
(1.58299e-15 1.75925e-23 -500)
(-5.16886e-12 9.00444e-23 -500)
(5.04565e-12 1.7682e-27 -500)
(1.21414e-13 8.22948e-29 -500)
(3.15352e-21 1.26976e-27 -500)
(2.70201e-25 1.49669e-27 -500)
(1.24511e-29 2.3825e-29 -500)
(-3.92394e-29 1.21099e-27 -500)
(-2.32601e-24 -2.70351e-28 -500)
(-3.83674e-14 3.74684e-15 -500)
(-1.03998e-12 9.75612e-14 -500)
(-2.26363e-13 6.01129e-13 -500)
(9.07693e-13 3.33484e-13 -500)
(2.01554e-13 7.03902e-14 -500)
(2.01264e-15 1.87766e-23 -500)
(2.05948e-24 2.30236e-28 -500)
(5.18757e-30 -2.32151e-28 -500)
(-1.2425e-29 5.67532e-28 -500)
(-2.70048e-25 2.51163e-28 -500)
(-3.15352e-21 1.02138e-27 -500)
(1.58299e-15 3.44144e-28 -500)
(-5.16886e-12 1.10831e-27 -500)
(5.04565e-12 -4.14938e-29 -500)
(1.21414e-13 -7.63837e-30 -500)
(3.15352e-21 -8.52064e-28 -500)
(2.70201e-25 -8.52261e-28 -500)
(1.24403e-29 -8.52853e-28 -500)
(-3.92619e-29 -8.52986e-28 -500)
(-2.68933e-24 -8.47602e-28 -500)
(-4.75997e-15 2.09529e-16 -500)
(-4.35502e-13 8.96972e-14 -500)
(-3.06516e-13 5.57451e-13 -500)
(4.71009e-13 1.6306e-13 -500)
(2.79506e-13 6.58941e-14 -500)
(1.31613e-15 1.38083e-23 -500)
(6.17649e-25 -7.08652e-28 -500)
(9.08895e-32 -8.52779e-28 -500)
(-1.24324e-29 -8.52417e-28 -500)
(-2.70048e-25 -8.52785e-28 -500)
(-3.15352e-21 -8.53141e-28 -500)
(1.58299e-15 -7.63313e-30 -500)
(-5.16886e-12 -4.16431e-29 -500)
(5.04565e-12 -2.25072e-23 -500)
(1.21414e-13 -9.07405e-24 -500)
(3.15352e-21 -9.08502e-24 -500)
(2.70201e-25 -9.08502e-24 -500)
(1.24437e-29 -9.08502e-24 -500)
(-3.9137e-29 -9.08502e-24 -500)
(-1.46895e-24 -9.0849e-24 -500)
(2.51453e-15 4.03305e-23 -500)
(-3.20072e-13 2.99043e-14 -500)
(-6.1571e-14 1.6422e-13 -500)
(3.56966e-13 -3.99495e-13 -500)
(-1.36259e-13 -5.86396e-14 -500)
(7.64371e-15 -6.48064e-23 -500)
(1.42613e-24 -9.08504e-24 -500)
(1.9922e-31 -9.08502e-24 -500)
(-1.2431e-29 -9.08502e-24 -500)
(-2.70048e-25 -9.08502e-24 -500)
(-3.15352e-21 -9.08502e-24 -500)
(1.58299e-15 -9.07405e-24 -500)
(-5.16886e-12 -2.25072e-23 -500)
(5.04565e-12 -8.1611e-22 -500)
(1.21414e-13 -2.68861e-22 -500)
(3.14953e-21 -2.29765e-20 -500)
(2.70201e-25 -2.29765e-20 -500)
(1.24292e-29 -2.29765e-20 -500)
(-2.22461e-29 -2.29765e-20 -500)
(-1.14279e-24 -2.29765e-20 -500)
(7.12599e-15 -2.29883e-20 -500)
(-1.8845e-13 5.42975e-14 -500)
(-7.4192e-13 3.64405e-13 -500)
(1.72595e-13 -5.10937e-13 -500)
(8.51674e-13 -9.15513e-14 -500)
(2.15804e-15 -2.29761e-20 -500)
(2.77949e-24 -2.29765e-20 -500)
(4.99333e-31 -2.29765e-20 -500)
(-1.24084e-29 -2.29765e-20 -500)
(-2.70048e-25 -2.29765e-20 -500)
(-3.14953e-21 -2.29765e-20 -500)
(1.58299e-15 -2.68863e-22 -500)
(-5.16886e-12 -8.1611e-22 -500)
(5.04565e-12 -7.04661e-15 -500)
(1.21414e-13 1.58302e-15 -500)
(1.15547e-23 1.583e-15 -500)
(2.70261e-25 1.583e-15 -500)
(4.9091e-32 1.583e-15 -500)
(-2.11451e-29 1.583e-15 -500)
(-2.67496e-24 1.583e-15 -500)
(6.50475e-15 -3.22227e-16 -500)
(2.29362e-13 -9.84909e-14 -500)
(-5.70916e-13 -8.4847e-13 -500)
(-1.68931e-14 1.67e-13 -500)
(6.66202e-13 5.01204e-14 -500)
(5.23116e-21 1.583e-15 -500)
(2.1476e-24 1.583e-15 -500)
(2.23557e-29 1.583e-15 -500)
(-3.90914e-32 1.583e-15 -500)
(-2.7026e-25 1.583e-15 -500)
(-1.15549e-23 1.583e-15 -500)
(1.58347e-15 1.58302e-15 -500)
(-5.16886e-12 -7.04661e-15 -500)
(5.03897e-12 -5.16044e-12 -500)
(1.28545e-13 -5.16886e-12 -500)
(4.10583e-22 -5.16886e-12 -500)
(1.2309e-24 -5.16886e-12 -500)
(5.9658e-30 -5.16886e-12 -500)
(-1.42315e-31 -5.16886e-12 -500)
(2.31459e-15 -5.16886e-12 -500)
(-1.01617e-13 -5.1663e-12 -500)
(-1.25872e-12 -5.06313e-12 -500)
(-1.13845e-13 -4.07106e-12 -500)
(9.93651e-13 -4.0429e-12 -500)
(1.48238e-13 -5.04435e-12 -500)
(-6.62322e-15 -5.16886e-12 -500)
(1.35095e-24 -5.16886e-12 -500)
(1.64339e-29 -5.16886e-12 -500)
(-5.91006e-30 -5.16886e-12 -500)
(-1.23089e-24 -5.16886e-12 -500)
(-4.10583e-22 -5.16886e-12 -500)
(-7.04659e-15 -5.16886e-12 -500)
(-5.16044e-12 -5.16044e-12 -500)
(3.60845e-12 3.60845e-12 -500)
(-1.95083e-14 3.60609e-12 -500)
(8.1833e-22 3.60609e-12 -500)
(5.28967e-25 3.60609e-12 -500)
(1.21857e-29 3.60609e-12 -500)
(-3.05474e-29 3.60609e-12 -500)
(-9.82754e-25 3.60609e-12 -500)
(-5.15433e-14 3.58439e-12 -500)
(-6.92756e-13 3.23722e-12 -500)
(-5.75038e-13 2.441e-12 -500)
(4.9408e-13 2.67458e-12 -500)
(6.33271e-13 3.38075e-12 -500)
(1.97034e-20 3.60609e-12 -500)
(1.20446e-24 3.60609e-12 -500)
(9.23603e-29 3.60609e-12 -500)
(-1.21692e-29 3.60609e-12 -500)
(-5.28945e-25 3.60609e-12 -500)
(-8.1833e-22 3.60609e-12 -500)
(-1.14891e-15 3.60609e-12 -500)
(-3.59035e-12 3.60845e-12 -500)
(3.60609e-12 -1.9536e-14 -500)
(-1.80192e-14 -1.80192e-14 -500)
(1.15156e-23 -1.80192e-14 -500)
(4.33987e-25 -1.80192e-14 -500)
(4.87089e-32 -1.80192e-14 -500)
(-5.6317e-29 -1.80192e-14 -500)
(-2.69191e-24 -1.80192e-14 -500)
(-2.32539e-15 -1.80192e-14 -500)
(-8.14827e-13 2.23638e-13 -500)
(-3.33206e-13 4.42823e-13 -500)
(5.52269e-13 3.14169e-13 -500)
(4.23439e-13 1.6839e-13 -500)
(2.08477e-23 -1.80192e-14 -500)
(7.56825e-25 -1.80192e-14 -500)
(1.03782e-31 -1.80192e-14 -500)
(-3.38033e-32 -1.80192e-14 -500)
(-4.33987e-25 -1.80192e-14 -500)
(-1.15159e-23 -1.80192e-14 -500)
(-1.78647e-15 -1.80192e-14 -500)
(-3.58748e-12 -1.9536e-14 -500)
(3.60609e-12 7.13594e-22 -500)
(-1.80192e-14 2.78828e-22 -500)
(6.64059e-21 4.84588e-20 -500)
(4.34638e-25 4.84588e-20 -500)
(2.62211e-29 4.84588e-20 -500)
(-7.7382e-29 4.84588e-20 -500)
(-2.98701e-24 4.84588e-20 -500)
(8.66933e-16 4.85701e-20 -500)
(-3.67183e-13 -9.83624e-15 -500)
(-2.88693e-13 -2.01549e-13 -500)
(4.02432e-13 -5.06844e-14 -500)
(2.35371e-13 1.29468e-15 -500)
(8.1376e-22 4.8465e-20 -500)
(-3.07086e-25 4.84588e-20 -500)
(1.20307e-29 4.84588e-20 -500)
(-2.62074e-29 4.84588e-20 -500)
(-4.34315e-25 4.84588e-20 -500)
(-6.64059e-21 4.84588e-20 -500)
(-1.78648e-15 2.78832e-22 -500)
(-3.58748e-12 7.13594e-22 -500)
(3.60609e-12 -8.32179e-24 -500)
(-1.80192e-14 2.03141e-23 -500)
(6.6406e-21 2.0341e-23 -500)
(4.34638e-25 2.0341e-23 -500)
(2.62301e-29 2.0341e-23 -500)
(-1.83642e-29 2.0341e-23 -500)
(-1.08244e-25 2.03414e-23 -500)
(3.91594e-15 5.93775e-23 -500)
(-1.12667e-12 -7.35333e-14 -500)
(-4.89885e-13 -7.30562e-13 -500)
(9.43135e-13 -4.00329e-13 -500)
(5.19826e-13 -7.71652e-14 -500)
(8.385e-22 1.65041e-24 -500)
(1.07315e-24 2.03411e-23 -500)
(1.2215e-29 2.0341e-23 -500)
(-2.62045e-29 2.0341e-23 -500)
(-4.34315e-25 2.0341e-23 -500)
(-6.6406e-21 2.0341e-23 -500)
(-1.78648e-15 2.03141e-23 -500)
(-3.58748e-12 -8.32179e-24 -500)
(3.60609e-12 5.31405e-29 -500)
(-1.80192e-14 1.22321e-29 -500)
(6.6406e-21 1.80606e-27 -500)
(4.34638e-25 1.80587e-27 -500)
(2.62277e-29 1.80635e-27 -500)
(-4.46407e-29 1.80639e-27 -500)
(-1.31102e-24 7.52235e-28 -500)
(5.53257e-15 -1.01743e-22 -500)
(-1.4201e-12 8.58969e-14 -500)
(-7.50526e-13 2.29795e-13 -500)
(1.25635e-12 -1.66838e-13 -500)
(8.55526e-13 -3.70454e-14 -500)
(-7.02071e-17 -2.86764e-24 -500)
(-2.62523e-25 1.69602e-27 -500)
(-5.78913e-32 1.80558e-27 -500)
(-2.62095e-29 1.80471e-27 -500)
(-4.34315e-25 1.80673e-27 -500)
(-6.6406e-21 1.80568e-27 -500)
(-1.78648e-15 1.1011e-29 -500)
(-3.58748e-12 5.31994e-29 -500)
(3.60609e-12 -2.66348e-27 -500)
(-1.80192e-14 -2.46809e-28 -500)
(6.6406e-21 -1.67424e-27 -500)
(4.34638e-25 -2.72964e-27 -500)
(2.62325e-29 -2.32293e-27 -500)
(-7.04154e-29 -1.47728e-27 -500)
(-2.61114e-24 -1.89135e-27 -500)
(6.74751e-15 3.80827e-23 -500)
(-5.86394e-13 1.23229e-13 -500)
(-6.58051e-13 9.53843e-13 -500)
(5.80703e-13 -2.6875e-13 -500)
(7.6216e-13 -1.85296e-14 -500)
(2.3812e-21 -9.2036e-23 -500)
(1.557e-24 -4.36865e-27 -500)
(3.06734e-29 -2.90331e-27 -500)
(-2.61978e-29 -3.13935e-27 -500)
(-4.34315e-25 -3.25812e-28 -500)
(-6.6406e-21 -2.05334e-27 -500)
(-1.78648e-15 -7.83897e-28 -500)
(-3.58748e-12 -2.66199e-27 -500)
(3.60609e-12 -7.08353e-23 -500)
(-1.80192e-14 -2.95077e-23 -500)
(6.6406e-21 -3.62278e-23 -500)
(4.34601e-25 -3.45044e-23 -500)
(7.22417e-29 -2.12338e-23 -500)
(-6.53937e-29 -4.22683e-24 -500)
(-1.13786e-24 -3.8401e-23 -500)
(4.86462e-15 1.70881e-23 -500)
(-1.53357e-13 -2.78014e-14 -500)
(-8.95447e-13 9.57922e-15 -500)
(2.26949e-13 -1.96141e-13 -500)
(1.06882e-12 -4.41379e-14 -500)
(1.91234e-20 -2.78109e-23 -500)
(3.93413e-24 -1.01725e-22 -500)
(8.28866e-29 -5.14382e-23 -500)
(-4.2168e-30 -1.03705e-22 -500)
(-4.34315e-25 -1.19743e-24 -500)
(-6.6406e-21 -4.85439e-23 -500)
(-1.78648e-15 -8.53048e-23 -500)
(-3.58748e-12 -7.05291e-23 -500)
(3.60079e-12 -2.09802e-14 -500)
(-1.80192e-14 -2.01846e-15 -500)
(1.10971e-20 6.55863e-15 -500)
(-2.22172e-22 2.37444e-15 -500)
(1.00009e-19 6.9243e-15 -500)
(-1.55786e-20 6.69072e-15 -500)
(-2.51539e-24 1.1591e-15 -500)
(-6.2799e-16 3.84018e-15 -500)
(-7.15591e-13 -2.33812e-14 -500)
(-8.09924e-13 -3.38721e-13 -500)
(5.67928e-13 2.86825e-13 -500)
(1.07094e-12 4.75812e-14 -500)
(-6.49475e-18 3.35026e-15 -500)
(-1.52518e-19 1.36214e-15 -500)
(7.81707e-21 3.67811e-15 -500)
(3.35575e-20 4.40615e-15 -500)
(6.03166e-21 4.26486e-16 -500)
(-1.06971e-20 1.63728e-14 -500)
(-1.784e-15 -3.99567e-16 -500)
(-3.58558e-12 -1.57659e-14 -500)
(3.36856e-12 -8.46939e-13 -500)
(1.20413e-13 -8.94958e-13 -500)
(1.63422e-14 -4.58336e-13 -500)
(-1.42616e-14 -7.34392e-13 -500)
(6.21679e-14 -7.0364e-13 -500)
(-2.82042e-14 -2.22022e-13 -500)
(-7.57625e-14 -1.00704e-12 -500)
(1.53078e-14 -7.60828e-13 -500)
(-5.15664e-13 -6.14807e-13 -500)
(-5.33238e-13 -8.69992e-14 -500)
(5.51577e-13 3.11301e-13 -500)
(5.23296e-13 -4.11628e-13 -500)
(-3.77097e-14 -8.58177e-13 -500)
(-2.14684e-14 -8.98711e-13 -500)
(3.51638e-14 -1.01901e-12 -500)
(9.26547e-15 -6.79453e-13 -500)
(4.48024e-14 -8.29998e-13 -500)
(6.56853e-15 -1.04081e-13 -500)
(-7.38154e-14 -7.09182e-13 -500)
(-3.41761e-12 -6.4655e-13 -500)
(2.26771e-12 -5.68012e-13 -500)
(4.59892e-13 -5.67192e-13 -500)
(-3.55542e-14 -5.87518e-13 -500)
(-2.31744e-13 -1.36972e-12 -500)
(3.52384e-13 -4.97936e-13 -500)
(-1.97386e-13 -1.01007e-12 -500)
(-2.57896e-13 -4.6269e-13 -500)
(1.78675e-13 -1.06547e-12 -500)
(-1.15878e-13 -4.069e-13 -500)
(1.88113e-13 3.89814e-14 -500)
(8.07087e-14 -3.33014e-13 -500)
(-2.01781e-13 -9.954e-13 -500)
(-1.22319e-13 -4.64129e-13 -500)
(-2.0984e-13 -3.38755e-13 -500)
(1.17462e-13 -4.28746e-13 -500)
(1.41012e-13 -4.41583e-13 -500)
(4.96136e-13 -4.54295e-13 -500)
(1.25661e-13 -2.40034e-13 -500)
(-6.00848e-13 -2.1568e-13 -500)
(-2.42739e-12 -4.99802e-14 -500)
(2.52587e-12 6.49482e-13 -500)
(1.14751e-13 6.42444e-13 -500)
(-7.52774e-13 4.25455e-13 -500)
(1.6304e-13 7.31573e-13 -500)
(3.1996e-13 5.86689e-13 -500)
(3.30685e-14 3.67785e-13 -500)
(1.49837e-14 8.04046e-13 -500)
(6.42482e-14 6.24709e-13 -500)
(4.07998e-13 6.25839e-13 -500)
(-4.06033e-13 5.48234e-14 -500)
(-6.37775e-13 -2.08446e-13 -500)
(4.6003e-13 5.6114e-13 -500)
(7.75696e-13 6.98647e-13 -500)
(-2.76394e-14 8.31206e-13 -500)
(-7.29003e-14 8.87957e-13 -500)
(6.22368e-14 7.16225e-13 -500)
(1.7877e-13 7.15643e-13 -500)
(2.10924e-13 1.73411e-13 -500)
(1.6573e-14 5.82681e-13 -500)
(-2.89599e-12 5.69426e-13 -500)
(3.44229e-12 6.21221e-13 -500)
(-4.75899e-15 5.89013e-13 -500)
(-1.10532e-13 8.1362e-13 -500)
(5.35102e-14 1.77261e-12 -500)
(3.7498e-14 4.05251e-13 -500)
(-1.14652e-14 1.26926e-12 -500)
(-8.76862e-15 4.02922e-13 -500)
(2.15053e-16 1.32111e-12 -500)
(-6.13122e-13 4.01309e-13 -500)
(-7.37135e-13 -3.67623e-13 -500)
(6.26843e-13 5.43549e-13 -500)
(8.16038e-13 1.22638e-12 -500)
(8.71227e-14 4.63847e-13 -500)
(-4.15351e-14 3.06737e-13 -500)
(4.57708e-15 7.39609e-13 -500)
(4.32416e-14 5.43147e-13 -500)
(-1.98145e-14 6.40847e-13 -500)
(1.75488e-14 3.22247e-13 -500)
(1.69218e-14 2.74927e-13 -500)
(-3.50056e-12 7.11954e-14 -500)
(3.60609e-12 1.02198e-19 -500)
(-1.80192e-14 6.26556e-21 -500)
(6.63882e-21 6.07746e-20 -500)
(5.49113e-24 8.23454e-20 -500)
(3.366e-25 -6.8515e-22 -500)
(-2.55625e-24 6.39713e-20 -500)
(-1.40715e-24 6.7035e-21 -500)
(5.72313e-16 3.24699e-22 -500)
(-1.12783e-12 5.75824e-14 -500)
(-4.45512e-13 3.14367e-13 -500)
(8.81534e-13 2.02031e-13 -500)
(4.89261e-13 2.15934e-14 -500)
(1.90948e-20 1.15817e-20 -500)
(2.96882e-24 6.56052e-21 -500)
(-2.44569e-24 2.40801e-22 -500)
(5.16933e-25 -1.59992e-15 -500)
(5.013e-25 3.37235e-20 -500)
(-6.64247e-21 5.26929e-20 -500)
(-1.78648e-15 1.50331e-20 -500)
(-3.58748e-12 -7.21961e-16 -500)
(3.60609e-12 4.58116e-23 -500)
(-1.80192e-14 3.68774e-23 -500)
(6.6406e-21 7.02132e-23 -500)
(4.34721e-25 8.18637e-23 -500)
(3.83712e-29 -4.79183e-23 -500)
(-5.73956e-29 5.22442e-23 -500)
(-4.29213e-25 3.15868e-23 -500)
(2.77426e-15 4.73403e-23 -500)
(-2.26736e-13 1.51915e-14 -500)
(-5.23911e-13 1.89818e-13 -500)
(4.33358e-13 -2.69998e-13 -500)
(6.07863e-13 -4.65779e-14 -500)
(-2.17664e-17 5.82094e-23 -500)
(4.79741e-26 1.60081e-23 -500)
(-4.04557e-29 1.46654e-23 -500)
(-2.61084e-29 3.13412e-23 -500)
(-4.34311e-25 3.39378e-23 -500)
(-6.6406e-21 5.18812e-23 -500)
(-1.78648e-15 2.648e-23 -500)
(-3.58748e-12 4.71794e-23 -500)
(3.60609e-12 3.57517e-27 -500)
(-1.80192e-14 3.70154e-28 -500)
(6.6406e-21 2.63932e-27 -500)
(4.34638e-25 3.13492e-27 -500)
(2.62225e-29 -2.70234e-29 -500)
(-8.25564e-29 2.68982e-27 -500)
(-3.10295e-24 -3.63848e-28 -500)
(4.33512e-16 -8.57164e-23 -500)
(-8.50459e-13 -5.78968e-14 -500)
(-7.50264e-13 -2.97907e-13 -500)
(6.80697e-13 -8.83694e-14 -500)
(1.02417e-12 -7.79812e-15 -500)
(-1.84187e-16 -5.03004e-24 -500)
(4.53063e-25 4.13173e-28 -500)
(1.03356e-29 1.32226e-29 -500)
(-2.62045e-29 1.27096e-27 -500)
(-4.34315e-25 4.97717e-28 -500)
(-6.6406e-21 2.28884e-27 -500)
(-1.78648e-15 9.18934e-28 -500)
(-3.58748e-12 2.18145e-27 -500)
(3.60609e-12 -5.43433e-29 -500)
(-1.80192e-14 -1.0469e-29 -500)
(6.6406e-21 -1.80351e-27 -500)
(4.34638e-25 -1.8035e-27 -500)
(2.62191e-29 -1.80609e-27 -500)
(-8.25878e-29 -1.80392e-27 -500)
(-3.62337e-24 -1.8028e-27 -500)
(4.82177e-15 2.69305e-24 -500)
(-8.13576e-13 9.18547e-15 -500)
(-6.47033e-13 2.37024e-14 -500)
(7.08163e-13 4.192e-14 -500)
(8.72591e-13 -1.15964e-15 -500)
(-1.35624e-15 -6.23759e-24 -500)
(2.6192e-25 -1.51417e-27 -500)
(4.31766e-32 -1.80479e-27 -500)
(-2.62074e-29 -1.80432e-27 -500)
(-4.34315e-25 -1.80464e-27 -500)
(-6.6406e-21 -1.80404e-27 -500)
(-1.78648e-15 -1.05677e-29 -500)
(-3.58748e-12 -5.43247e-29 -500)
(3.60609e-12 8.3218e-24 -500)
(-1.80192e-14 -2.03141e-23 -500)
(6.6406e-21 -2.03374e-23 -500)
(4.34638e-25 -2.03374e-23 -500)
(2.62209e-29 -2.03374e-23 -500)
(-8.25114e-29 -2.03374e-23 -500)
(-2.84417e-24 -2.03372e-23 -500)
(2.96672e-15 5.80967e-23 -500)
(-9.57958e-13 2.53797e-14 -500)
(-7.17667e-13 1.91762e-13 -500)
(6.6487e-13 4.8446e-14 -500)
(9.934e-13 1.31856e-15 -500)
(-7.54911e-17 -4.68512e-23 -500)
(-1.48327e-25 -2.03374e-23 -500)
(-4.17692e-32 -2.03374e-23 -500)
(-2.62096e-29 -2.03374e-23 -500)
(-4.34315e-25 -2.03374e-23 -500)
(-6.6406e-21 -2.03374e-23 -500)
(-1.78648e-15 -2.03141e-23 -500)
(-3.58748e-12 8.3218e-24 -500)
(3.60609e-12 -7.1361e-22 -500)
(-1.80192e-14 -2.78831e-22 -500)
(6.63213e-21 -4.84588e-20 -500)
(4.34638e-25 -4.84588e-20 -500)
(2.61935e-29 -4.84588e-20 -500)
(-4.68241e-29 -4.84588e-20 -500)
(-1.40604e-24 -4.84588e-20 -500)
(2.655e-15 -4.85161e-20 -500)
(-5.24186e-13 2.08585e-14 -500)
(-6.01195e-13 9.60502e-14 -500)
(5.12558e-13 2.28346e-13 -500)
(7.22298e-13 6.58622e-14 -500)
(5.02292e-23 -4.85055e-20 -500)
(1.81534e-24 -4.84588e-20 -500)
(3.73853e-31 -4.84588e-20 -500)
(-2.61686e-29 -4.84588e-20 -500)
(-4.34315e-25 -4.84588e-20 -500)
(-6.63213e-21 -4.84588e-20 -500)
(-1.78648e-15 -2.78835e-22 -500)
(-3.58748e-12 -7.1361e-22 -500)
(3.60609e-12 -1.14836e-15 -500)
(-1.80204e-14 -1.78644e-15 -500)
(1.43184e-23 -1.78649e-15 -500)
(4.346e-25 -1.78649e-15 -500)
(8.66176e-32 -1.78649e-15 -500)
(-4.42149e-29 -1.78649e-15 -500)
(-3.41459e-24 -1.78649e-15 -500)
(7.41474e-15 -1.83497e-15 -500)
(-8.27265e-13 2.39725e-14 -500)
(-5.61707e-13 -8.28498e-14 -500)
(5.83219e-13 -8.52013e-14 -500)
(5.21001e-13 3.53932e-15 -500)
(1.09821e-20 -1.78649e-15 -500)
(2.23279e-24 -1.78649e-15 -500)
(4.67521e-29 -1.78649e-15 -500)
(-6.72671e-32 -1.78649e-15 -500)
(-4.34599e-25 -1.78649e-15 -500)
(-1.43187e-23 -1.78649e-15 -500)
(-1.78529e-15 -1.78644e-15 -500)
(-3.58748e-12 -1.14836e-15 -500)
(3.60845e-12 -3.59035e-12 -500)
(-1.95361e-14 -3.58748e-12 -500)
(8.2003e-22 -3.58748e-12 -500)
(5.29498e-25 -3.58748e-12 -500)
(1.22081e-29 -3.58748e-12 -500)
(-1.50625e-31 -3.58748e-12 -500)
(-1.21115e-24 -3.58748e-12 -500)
(5.33234e-15 -3.58402e-12 -500)
(-2.01375e-13 -3.48113e-12 -500)
(-3.39612e-13 -2.58002e-12 -500)
(3.58979e-13 -2.55309e-12 -500)
(4.88408e-13 -3.48925e-12 -500)
(3.40881e-21 -3.58748e-12 -500)
(1.58732e-24 -3.58748e-12 -500)
(3.44912e-29 -3.58748e-12 -500)
(-1.21902e-29 -3.58748e-12 -500)
(-5.29475e-25 -3.58748e-12 -500)
(-8.2003e-22 -3.58748e-12 -500)
(-1.14833e-15 -3.58748e-12 -500)
(-3.59035e-12 -3.59035e-12 -500)
(3.7768e-12 3.7768e-12 -500)
(-1.66381e-16 3.77718e-12 -500)
(1.67577e-24 3.77718e-12 -500)
(5.28766e-25 3.77718e-12 -500)
(1.60069e-31 3.77718e-12 -500)
(-2.07699e-31 3.77718e-12 -500)
(-1.91735e-24 3.77718e-12 -500)
(-7.87791e-16 3.77765e-12 -500)
(8.76823e-14 3.69064e-12 -500)
(-9.16359e-13 3.13909e-12 -500)
(5.92328e-14 1.97426e-12 -500)
(1.10227e-12 3.29861e-12 -500)
(1.62889e-23 3.77718e-12 -500)
(6.52594e-25 3.77718e-12 -500)
(9.23218e-32 3.77718e-12 -500)
(-1.46965e-31 3.77718e-12 -500)
(-5.28766e-25 3.77718e-12 -500)
(-1.67577e-24 3.77718e-12 -500)
(-1.55102e-15 3.77718e-12 -500)
(-3.77726e-12 3.7768e-12 -500)
(3.77718e-12 -1.66967e-16 -500)
(5.22681e-16 5.22694e-16 -500)
(1.15156e-23 5.22694e-16 -500)
(4.34001e-25 5.22694e-16 -500)
(5.69664e-32 5.22694e-16 -500)
(-5.13238e-32 5.22694e-16 -500)
(-5.24085e-25 5.22694e-16 -500)
(-3.83297e-15 5.22694e-16 -500)
(-6.1002e-13 -1.57817e-13 -500)
(-7.31189e-13 -1.05821e-12 -500)
(4.86563e-13 3.08317e-13 -500)
(8.37717e-13 2.28251e-13 -500)
(5.41692e-23 5.22694e-16 -500)
(2.65225e-24 5.22694e-16 -500)
(4.3034e-31 5.22694e-16 -500)
(-2.62238e-32 5.22694e-16 -500)
(-4.34001e-25 5.22694e-16 -500)
(-1.15156e-23 5.22694e-16 -500)
(-2.26616e-15 5.22694e-16 -500)
(-3.77759e-12 -1.66967e-16 -500)
(3.77718e-12 -1.04794e-22 -500)
(5.22681e-16 2.78835e-22 -500)
(1.15159e-23 2.7885e-22 -500)
(4.34001e-25 2.7885e-22 -500)
(4.89751e-32 2.7885e-22 -500)
(-3.20549e-31 2.7885e-22 -500)
(-2.83288e-24 2.7885e-22 -500)
(2.05163e-15 2.90872e-22 -500)
(-1.22519e-12 -3.05425e-14 -500)
(-7.93622e-13 -2.72831e-13 -500)
(9.28292e-13 -9.43172e-14 -500)
(8.79341e-13 -6.81778e-15 -500)
(9.14179e-24 2.96575e-22 -500)
(1.11298e-24 2.7885e-22 -500)
(2.10635e-31 2.7885e-22 -500)
(-2.99142e-32 2.7885e-22 -500)
(-4.34001e-25 2.7885e-22 -500)
(-1.15159e-23 2.7885e-22 -500)
(-2.26616e-15 2.78835e-22 -500)
(-3.77759e-12 -1.04794e-22 -500)
(3.77718e-12 -8.32408e-24 -500)
(5.22681e-16 2.03161e-23 -500)
(1.15159e-23 2.03161e-23 -500)
(4.34001e-25 2.03161e-23 -500)
(5.23983e-32 2.03161e-23 -500)
(-1.932e-31 2.03161e-23 -500)
(-1.62546e-24 2.03161e-23 -500)
(2.70098e-15 3.06e-23 -500)
(-8.25188e-13 6.1282e-14 -500)
(-7.56651e-13 2.12639e-13 -500)
(7.83953e-13 3.43029e-13 -500)
(1.01836e-12 1.13234e-13 -500)
(4.67558e-23 3.04177e-23 -500)
(2.33666e-24 2.03161e-23 -500)
(3.70568e-31 2.03161e-23 -500)
(-2.78324e-32 2.03161e-23 -500)
(-4.34001e-25 2.03161e-23 -500)
(-1.15159e-23 2.03161e-23 -500)
(-2.26616e-15 2.03161e-23 -500)
(-3.77759e-12 -8.32408e-24 -500)
(3.77718e-12 -6.4899e-30 -500)
(5.22681e-16 1.1913e-29 -500)
(1.15159e-23 1.18234e-29 -500)
(4.34001e-25 1.26306e-29 -500)
(4.98227e-32 1.31714e-29 -500)
(-3.00249e-31 1.26891e-29 -500)
(-2.82159e-24 1.25776e-30 -500)
(3.09222e-15 -4.04542e-23 -500)
(-6.14749e-13 9.59975e-14 -500)
(-3.01232e-13 5.6056e-13 -500)
(6.84628e-13 1.76437e-13 -500)
(1.45131e-13 3.72564e-14 -500)
(-4.13596e-18 3.67817e-23 -500)
(8.22395e-25 2.5393e-29 -500)
(1.42763e-31 1.23645e-29 -500)
(-3.18889e-32 1.14096e-29 -500)
(-4.34001e-25 1.25805e-29 -500)
(-1.15159e-23 1.2084e-29 -500)
(-2.26616e-15 1.07523e-29 -500)
(-3.77759e-12 -6.30853e-30 -500)
(3.77718e-12 -3.91702e-29 -500)
(5.22681e-16 -2.85347e-29 -500)
(1.15159e-23 -3.0418e-29 -500)
(4.34001e-25 -9.52331e-30 -500)
(4.74063e-32 6.16522e-30 -500)
(-3.9512e-31 -4.99276e-30 -500)
(-3.12265e-24 6.52179e-30 -500)
(8.79712e-15 6.54787e-23 -500)
(-1.68099e-13 1.51926e-14 -500)
(-7.00259e-13 2.05708e-13 -500)
(2.50487e-13 -2.75096e-13 -500)
(7.91898e-13 -8.30429e-14 -500)
(2.21854e-23 -5.50794e-23 -500)
(8.63446e-25 -6.21675e-29 -500)
(1.20393e-31 -1.97987e-29 -500)
(-2.8308e-32 -4.24655e-29 -500)
(-4.34001e-25 -1.25385e-29 -500)
(-1.15159e-23 -2.37184e-29 -500)