/*--------------------------------*- C++ -*----------------------------------*\
| =========                 |                                                 |
| \\      /  F ield         | OpenFOAM: The Open Source CFD Toolbox           |
|  \\    /   O peration     | Version:  2412                                  |
|   \\  /    A nd           | Website:  www.openfoam.com                      |
|    \\/     M anipulation  |                                                 |
\*---------------------------------------------------------------------------*/
FoamFile
{
    version     2.0;
    format      ascii;
    arch        "LSB;label=32;scalar=64";
    class       volVectorField;
    location    "0.009";
    object      U;
}
// * * * * * * * * * * * * * * * * * * * * * * * * * * * * * * * * * * * * * //

dimensions      [0 1 -1 0 0 0 0];

internalField   nonuniform List<vector> 
124215
(
(9.92713e-12 9.92713e-12 -500)
(1.51842e-13 9.93493e-12 -500)
(-2.6135e-19 9.93493e-12 -500)
(1.65686e-24 9.93493e-12 -500)
(1.07932e-29 9.93493e-12 -500)
(-2.78583e-29 9.93493e-12 -500)
(4.01421e-15 9.93493e-12 -500)
(-9.88865e-14 9.83964e-12 -500)
(-6.95165e-13 8.58499e-12 -500)
(-1.1333e-12 7.1265e-12 -500)
(5.03616e-13 6.54769e-12 -500)
(1.60977e-12 8.33332e-12 -500)
(1.71393e-20 9.93493e-12 -500)
(2.96699e-24 9.93493e-12 -500)
(8.04615e-29 9.93493e-12 -500)
(-1.07204e-29 9.93493e-12 -500)
(-1.65684e-24 9.93493e-12 -500)
(-7.36866e-22 9.93493e-12 -500)
(-8.61902e-15 9.93493e-12 -500)
(-1.00719e-11 9.92713e-12 -500)
(9.93493e-12 1.52324e-13 -500)
(1.44023e-13 1.44023e-13 -500)
(1.66587e-23 1.44023e-13 -500)
(4.81724e-25 1.44023e-13 -500)
(6.11033e-32 1.44023e-13 -500)
(-5.01119e-29 1.44023e-13 -500)
(-3.42383e-24 1.44023e-13 -500)
(1.63809e-15 1.43959e-13 -500)
(-6.20085e-13 1.16607e-12 -500)
(-3.09534e-13 1.23588e-12 -500)
(3.47215e-13 1.55048e-12 -500)
(3.79797e-13 1.24624e-12 -500)
(5.00486e-23 1.44023e-13 -500)
(1.95705e-24 1.44023e-13 -500)
(2.94416e-31 1.44023e-13 -500)
(-4.10993e-32 1.44023e-13 -500)
(-4.81723e-25 1.44023e-13 -500)
(-1.66591e-23 1.44023e-13 -500)
(1.46195e-15 1.44023e-13 -500)
(-1.00815e-11 1.52324e-13 -500)
(9.93493e-12 -3.67712e-19 -500)
(1.44023e-13 4.29728e-22 -500)
(5.90169e-21 4.30286e-20 -500)
(4.82302e-25 4.30286e-20 -500)
(2.32982e-29 4.30286e-20 -500)
(-5.36066e-29 4.30286e-20 -500)
(-1.80481e-24 4.30286e-20 -500)
(-3.65372e-14 -1.70731e-15 -500)
(-5.93498e-13 -8.83019e-14 -500)
(-6.19473e-13 -7.59173e-13 -500)
(6.90112e-13 6.19824e-14 -500)
(1.27449e-12 7.4768e-14 -500)
(7.40317e-22 4.30307e-20 -500)
(5.73731e-25 4.30286e-20 -500)
(1.07839e-29 4.30286e-20 -500)
(-2.32751e-29 4.30286e-20 -500)
(-4.82014e-25 4.30286e-20 -500)
(-5.90169e-21 4.30286e-20 -500)
(1.46195e-15 4.29732e-22 -500)
(-1.00815e-11 -3.67712e-19 -500)
(9.93493e-12 2.56292e-23 -500)
(1.44023e-13 1.80659e-23 -500)
(5.90169e-21 1.80897e-23 -500)
(4.82302e-25 1.80897e-23 -500)
(2.32976e-29 1.80897e-23 -500)
(-1.64533e-29 1.80897e-23 -500)
(4.52565e-15 1.80899e-23 -500)
(-1.46977e-13 -3.65972e-14 -500)
(-1.50424e-12 -3.88216e-13 -500)
(-1.3477e-13 -1.14065e-12 -500)
(1.32254e-12 -2.95754e-13 -500)
(6.02549e-14 -5.1625e-14 -500)
(-6.28613e-16 5.01768e-25 -500)
(3.25959e-24 1.80897e-23 -500)
(1.12213e-29 1.80897e-23 -500)
(-2.32664e-29 1.80897e-23 -500)
(-4.82014e-25 1.80897e-23 -500)
(-5.90169e-21 1.80897e-23 -500)
(1.46195e-15 1.80659e-23 -500)
(-1.00815e-11 2.56292e-23 -500)
(9.93493e-12 7.01884e-29 -500)
(1.44023e-13 1.5192e-29 -500)
(5.90169e-21 1.6004e-27 -500)
(4.82302e-25 1.59947e-27 -500)
(2.32796e-29 1.60045e-27 -500)
(-4.03113e-29 1.59979e-27 -500)
(1.24153e-15 6.61445e-28 -500)
(-2.81668e-13 -2.48542e-14 -500)
(-2.43772e-12 -1.36075e-13 -500)
(-9.28132e-13 -1.15394e-13 -500)
(1.88771e-12 -5.9119e-13 -500)
(1.53766e-12 -1.38545e-13 -500)
(-3.05136e-17 3.31858e-23 -500)
(1.51138e-24 1.5129e-27 -500)
(2.40413e-31 1.59889e-27 -500)
(-2.32724e-29 1.59901e-27 -500)
(-4.82014e-25 1.60063e-27 -500)
(-5.90169e-21 1.59951e-27 -500)
(1.46195e-15 1.34249e-29 -500)
(-1.00815e-11 7.04688e-29 -500)
(9.93493e-12 -2.3955e-27 -500)
(1.44023e-13 9.88199e-28 -500)
(5.90169e-21 -1.16802e-27 -500)
(4.82302e-25 -2.4487e-27 -500)
(2.32933e-29 -1.94896e-27 -500)
(-6.26989e-29 -1.34261e-27 -500)
(3.51442e-15 -1.04387e-27 -500)
(-6.3032e-14 1.44096e-22 -500)
(-2.11211e-12 1.15893e-13 -500)
(-7.27425e-13 2.4407e-13 -500)
(1.48583e-12 -1.96449e-13 -500)
(1.11388e-12 -8.66357e-14 -500)
(1.68111e-14 -8.739e-23 -500)
(3.31942e-24 -3.85428e-27 -500)
(2.75586e-29 -2.60985e-27 -500)
(-2.32583e-29 -2.79651e-27 -500)
(-4.82014e-25 -3.1062e-28 -500)
(-5.90169e-21 -1.71989e-27 -500)
(1.46195e-15 -7.06739e-28 -500)
(-1.00815e-11 -2.3882e-27 -500)
(9.93493e-12 2.92292e-15 -500)
(1.44023e-13 -4.14655e-24 -500)
(5.90169e-21 -5.02246e-23 -500)
(4.82269e-25 3.10368e-15 -500)
(6.39779e-29 4.48152e-15 -500)
(-5.82989e-29 5.48063e-15 -500)
(3.59089e-15 -3.02347e-23 -500)
(-1.98937e-13 5.28248e-24 -500)
(-2.11614e-12 4.60243e-14 -500)
(-1.09581e-12 -1.01643e-14 -500)
(1.52603e-12 -8.40395e-13 -500)
(1.54554e-12 -1.87868e-13 -500)
(1.76663e-15 -2.22692e-23 -500)
(4.38015e-24 -1.99607e-22 -500)
(5.93332e-29 -1.14205e-22 -500)
(-3.67019e-30 4.81294e-15 -500)
(-4.82013e-25 7.46322e-16 -500)
(-5.90169e-21 2.27641e-15 -500)
(1.46195e-15 -9.19166e-23 -500)
(-1.00815e-11 1.13171e-20 -500)
(9.85791e-12 -9.12639e-14 -500)
(1.43991e-13 -1.59841e-15 -500)
(9.69575e-21 5.91437e-15 -500)
(-1.60433e-14 -1.21678e-13 -500)
(-7.33151e-16 -1.93152e-13 -500)
(-7.43409e-15 -1.52193e-13 -500)
(4.42417e-19 2.03992e-15 -500)
(-9.5891e-15 3.38986e-15 -500)
(-1.97674e-12 9.42568e-14 -500)
(-1.52429e-12 5.6009e-13 -500)
(1.21479e-12 -9.9293e-14 -500)
(2.51686e-12 -3.87208e-14 -500)
(-2.67555e-17 3.51979e-15 -500)
(-1.28735e-16 -5.08653e-15 -500)
(6.82737e-21 1.23418e-15 -500)
(-5.62936e-15 -1.37157e-13 -500)
(3.22164e-14 -3.524e-13 -500)
(3.46136e-14 -8.69626e-14 -500)
(7.76499e-16 9.92434e-16 -500)
(-1.00775e-11 -5.56357e-14 -500)
(8.66074e-12 -8.16331e-13 -500)
(1.19281e-12 -5.92454e-13 -500)
(-1.86156e-13 -1.45446e-13 -500)
(-2.55268e-13 -1.60664e-12 -500)
(2.22618e-14 -1.56931e-12 -500)
(-6.17429e-14 -1.39925e-12 -500)
(8.6062e-14 -2.03357e-12 -500)
(-5.49873e-14 -4.58002e-13 -500)
(-1.23522e-12 -1.91656e-12 -500)
(-1.03256e-12 -2.21245e-13 -500)
(8.10392e-13 6.5787e-13 -500)
(1.54838e-12 -1.49525e-12 -500)
(-1.09005e-14 -4.3917e-13 -500)
(-3.75487e-13 -1.79034e-12 -500)
(-8.02538e-14 -1.9461e-12 -500)
(-1.43021e-13 -2.61427e-12 -500)
(3.36345e-13 -3.20579e-12 -500)
(4.0348e-13 -1.0421e-12 -500)
(-3.54127e-13 -6.1037e-13 -500)
(-9.30467e-12 -2.4706e-12 -500)
(6.60395e-12 -1.67018e-12 -500)
(1.7957e-12 -1.00525e-12 -500)
(-7.92707e-13 -3.21213e-13 -500)
(-1.06573e-12 -6.46164e-13 -500)
(-1.41442e-14 -1.33262e-13 -500)
(-1.2219e-13 -1.99574e-12 -500)
(6.60616e-13 -7.91005e-13 -500)
(-4.44867e-13 -5.55971e-13 -500)
(-1.04057e-12 -1.91016e-13 -500)
(1.1351e-12 2.88241e-13 -500)
(-6.119e-14 -1.6603e-13 -500)
(2.89626e-13 -1.22871e-12 -500)
(3.42898e-13 -1.14982e-12 -500)
(-1.10012e-12 -5.9082e-13 -500)
(-7.23557e-13 -2.53769e-13 -500)
(-9.59424e-13 -8.50018e-13 -500)
(1.08806e-12 -1.38771e-12 -500)
(1.70059e-12 -1.39698e-13 -500)
(-1.2707e-12 -7.33429e-13 -500)
(-6.3483e-12 -1.13837e-12 -500)
(5.75312e-12 5.71576e-13 -500)
(2.41412e-12 4.95009e-13 -500)
(3.76701e-13 2.89848e-13 -500)
(9.52998e-14 1.21979e-12 -500)
(-1.41721e-12 1.20591e-12 -500)
(-3.74149e-13 1.37428e-12 -500)
(1.19069e-12 1.38343e-12 -500)
(6.17136e-14 5.59959e-13 -500)
(-3.40336e-13 1.31758e-12 -500)
(-8.68185e-13 -4.60411e-14 -500)
(-5.07387e-13 -2.3846e-13 -500)
(4.23543e-13 1.37391e-12 -500)
(9.58856e-13 6.50153e-13 -500)
(9.53188e-13 1.244e-12 -500)
(-5.91456e-13 1.60029e-12 -500)
(-9.65704e-13 1.97699e-12 -500)
(9.48164e-13 2.42714e-12 -500)
(5.47022e-13 1.15926e-12 -500)
(-2.23751e-12 6.44627e-13 -500)
(-6.25852e-12 1.67843e-12 -500)
(8.15596e-12 2.45426e-12 -500)
(1.34062e-12 1.37187e-12 -500)
(7.47879e-14 2.29712e-13 -500)
(4.28844e-14 7.93865e-13 -500)
(-3.69036e-13 -9.15871e-15 -500)
(-1.00728e-13 3.15027e-12 -500)
(3.05399e-13 5.43393e-13 -500)
(2.49001e-14 9.23144e-13 -500)
(-1.87256e-12 4.5238e-13 -500)
(-1.11488e-12 1.98107e-13 -500)
(1.20236e-12 5.19051e-13 -500)
(1.28589e-12 1.7919e-12 -500)
(1.74017e-13 1.47205e-12 -500)
(2.07807e-13 9.87144e-13 -500)
(3.10866e-14 -6.0288e-14 -500)
(-3.94923e-13 1.54975e-12 -500)
(1.13105e-13 1.97289e-12 -500)
(1.38411e-13 1.51597e-13 -500)
(-3.63984e-13 1.15989e-12 -500)
(-9.26848e-12 1.91713e-12 -500)
(9.93493e-12 9.23237e-20 -500)
(1.44023e-13 1.53046e-15 -500)
(5.89917e-21 3.81138e-16 -500)
(3.81623e-24 1.80508e-20 -500)
(-1.77782e-15 7.38325e-15 -500)
(2.39142e-25 6.14444e-20 -500)
(-3.9243e-24 3.97872e-15 -500)
(-3.18709e-15 1.0335e-21 -500)
(-6.28972e-13 3.49984e-14 -500)
(-9.72776e-13 2.28648e-13 -500)
(7.60214e-13 5.85858e-13 -500)
(1.12162e-12 1.36094e-13 -500)
(1.86704e-14 1.08488e-20 -500)
(2.37235e-16 1.89595e-14 -500)
(-1.9244e-24 -1.37154e-14 -500)
(1.03343e-24 -9.28435e-16 -500)
(2.51149e-24 3.60422e-20 -500)
(-5.9023e-21 4.50261e-15 -500)
(1.46195e-15 1.53047e-15 -500)
(-1.00815e-11 -4.68868e-16 -500)
(9.93493e-12 1.38529e-22 -500)
(1.44023e-13 3.83543e-23 -500)
(5.90169e-21 1.06473e-22 -500)
(4.82375e-25 1.05283e-22 -500)
(4.94781e-29 2.04363e-23 -500)
(-5.05947e-29 4.34347e-23 -500)
(-8.34132e-25 3.98599e-23 -500)
(2.80087e-15 6.60175e-23 -500)
(-2.22142e-12 -1.43252e-13 -500)
(-6.97259e-13 -4.07567e-13 -500)
(1.64907e-12 5.76182e-13 -500)
(9.21446e-13 9.95843e-14 -500)
(1.63143e-14 7.82083e-23 -500)
(1.95473e-24 6.27018e-23 -500)
(-2.0603e-29 4.48905e-23 -500)
(-2.30736e-29 7.34961e-23 -500)
(-4.8201e-25 6.24933e-23 -500)
(-5.90169e-21 4.48639e-23 -500)
(1.46195e-15 3.10227e-23 -500)
(-1.00815e-11 1.28567e-22 -500)
(9.93493e-12 3.26609e-27 -500)
(1.44023e-13 2.12658e-28 -500)
(5.90169e-21 2.36662e-27 -500)
(4.82302e-25 2.7976e-27 -500)
(2.33028e-29 2.17384e-29 -500)
(-7.34174e-29 2.30825e-27 -500)
(4.87071e-15 -4.4462e-28 -500)
(-1.04059e-13 1.0514e-14 -500)
(-1.49685e-12 1.64014e-13 -500)
(-3.25294e-13 6.14144e-13 -500)
(1.00572e-12 8.84247e-14 -500)
(3.84034e-13 1.18085e-13 -500)
(2.42001e-15 2.21367e-23 -500)
(2.78526e-24 4.11232e-28 -500)
(9.54721e-30 -2.86859e-28 -500)
(-2.32638e-29 1.08498e-27 -500)
(-4.82014e-25 4.62853e-28 -500)
(-5.90169e-21 1.95217e-27 -500)
(1.46195e-15 7.01346e-28 -500)
(-1.00815e-11 2.03086e-27 -500)
(9.93493e-12 -6.78844e-29 -500)
(1.44023e-13 -1.30253e-29 -500)
(5.90169e-21 -1.59757e-27 -500)
(4.82302e-25 -1.59778e-27 -500)
(2.32881e-29 -1.59934e-27 -500)
(-7.34614e-29 -1.59882e-27 -500)
(-4.56964e-24 -1.59163e-27 -500)
(-4.26895e-15 2.63905e-16 -500)
(-8.04571e-13 1.82922e-13 -500)
(-6.93595e-13 6.35961e-13 -500)
(8.0069e-13 3.40104e-13 -500)
(8.1633e-13 1.18217e-13 -500)
(9.0263e-16 1.4985e-23 -500)
(9.22509e-25 -1.33292e-27 -500)
(1.39245e-31 -1.59881e-27 -500)
(-2.32741e-29 -1.59824e-27 -500)
(-4.82014e-25 -1.59877e-27 -500)
(-5.90169e-21 -1.59908e-27 -500)
(1.46195e-15 -1.30674e-29 -500)
(-1.00815e-11 -6.804e-29 -500)
(9.93493e-12 -2.56292e-23 -500)
(1.44023e-13 -1.80659e-23 -500)
(5.90169e-21 -1.80865e-23 -500)
(4.82302e-25 -1.80865e-23 -500)
(2.32933e-29 -1.80865e-23 -500)
(-7.32699e-29 -1.80865e-23 -500)
(-2.70668e-24 -1.80862e-23 -500)
(3.04135e-15 6.72333e-23 -500)
(-5.44095e-13 1.02621e-13 -500)
(-2.50331e-14 4.58525e-13 -500)
(4.78564e-13 -2.76595e-13 -500)
(-2.97659e-13 -1.15683e-13 -500)
(9.04651e-15 -9.7263e-23 -500)
(1.78304e-24 -1.80865e-23 -500)
(2.4291e-31 -1.80865e-23 -500)
(-2.32732e-29 -1.80865e-23 -500)
(-4.82014e-25 -1.80865e-23 -500)
(-5.90169e-21 -1.80865e-23 -500)
(1.46195e-15 -1.80659e-23 -500)
(-1.00815e-11 -2.56292e-23 -500)
(9.93493e-12 -1.23144e-21 -500)
(1.44023e-13 -4.29733e-22 -500)
(5.89421e-21 -4.30286e-20 -500)
(4.82301e-25 -4.30286e-20 -500)
(2.3267e-29 -4.30286e-20 -500)
(-4.16317e-29 -4.30286e-20 -500)
(-1.9152e-24 -4.30286e-20 -500)
(2.10597e-15 -4.30633e-20 -500)
(-2.4965e-13 1.5561e-13 -500)
(-8.48331e-13 5.16039e-13 -500)
(1.79202e-13 -5.91582e-13 -500)
(1.338e-12 -1.46364e-13 -500)
(2.71807e-15 -4.30423e-20 -500)
(4.12418e-24 -4.30286e-20 -500)
(7.5361e-31 -4.30286e-20 -500)
(-2.32326e-29 -4.30286e-20 -500)
(-4.82014e-25 -4.30286e-20 -500)
(-5.89421e-21 -4.30286e-20 -500)
(1.46195e-15 -4.29736e-22 -500)
(-1.00815e-11 -1.23144e-21 -500)
(9.93493e-12 -9.2018e-15 -500)
(1.44022e-13 1.462e-15 -500)
(1.91295e-23 1.46196e-15 -500)
(4.82385e-25 1.46196e-15 -500)
(8.86676e-32 1.46196e-15 -500)
(-3.94934e-29 1.46196e-15 -500)
(-4.48096e-24 1.46196e-15 -500)
(3.73631e-14 -1.92771e-14 -500)
(4.23615e-13 -3.39582e-13 -500)
(-4.98998e-13 -1.62882e-12 -500)
(-1.0307e-13 -4.38384e-13 -500)
(7.76781e-13 1.86879e-14 -500)
(-1.05799e-18 1.46196e-15 -500)
(3.39085e-24 1.46196e-15 -500)
(4.17462e-29 1.46196e-15 -500)
(-6.9981e-32 1.46196e-15 -500)
(-4.82384e-25 1.46196e-15 -500)
(-1.91299e-23 1.46196e-15 -500)
(1.46292e-15 1.462e-15 -500)
(-1.00815e-11 -9.2018e-15 -500)
(9.92713e-12 -1.00719e-11 -500)
(1.52324e-13 -1.00815e-11 -500)
(-3.68188e-19 -1.00815e-11 -500)
(1.72332e-24 -1.00815e-11 -500)
(1.10665e-29 -1.00815e-11 -500)
(-2.37629e-31 -1.00815e-11 -500)
(2.06027e-15 -1.00815e-11 -500)
(-3.10093e-13 -1.00445e-11 -500)
(-2.23848e-12 -9.54708e-12 -500)
(-1.10644e-13 -7.36741e-12 -500)
(1.56603e-12 -7.99458e-12 -500)
(3.38189e-13 -9.56245e-12 -500)
(-8.34203e-15 -1.00815e-11 -500)
(2.25975e-24 -1.00815e-11 -500)
(3.07364e-29 -1.00815e-11 -500)
(-1.09906e-29 -1.00815e-11 -500)
(-1.7233e-24 -1.00815e-11 -500)
(-7.55448e-22 -1.00815e-11 -500)
(-9.20176e-15 -1.00815e-11 -500)
(-1.00719e-11 -1.00719e-11 -500)
(5.08067e-12 5.08067e-12 -500)
(-5.66574e-14 5.07663e-12 -500)
(-7.46042e-17 5.07663e-12 -500)
(8.38996e-25 5.07663e-12 -500)
(1.54e-29 5.07663e-12 -500)
(-3.85502e-29 5.07663e-12 -500)
(7.17488e-15 5.07663e-12 -500)
(-1.09397e-13 5.02338e-12 -500)
(-1.08346e-12 4.41044e-12 -500)
(-9.60527e-13 3.35263e-12 -500)
(7.13065e-13 3.56812e-12 -500)
(1.16436e-12 4.67284e-12 -500)
(2.48226e-20 5.07663e-12 -500)
(1.76197e-24 5.07663e-12 -500)
(1.16364e-28 5.07663e-12 -500)
(-1.53752e-29 5.07663e-12 -500)
(-8.38968e-25 5.07663e-12 -500)
(-1.03124e-21 5.07663e-12 -500)
(1.45667e-15 5.07663e-12 -500)
(-5.03564e-12 5.08067e-12 -500)
(5.07663e-12 -5.66924e-14 -500)
(-4.93755e-14 -4.93755e-14 -500)
(1.82663e-23 -4.93754e-14 -500)
(6.88407e-25 -4.93754e-14 -500)
(7.98997e-32 -4.93754e-14 -500)
(-7.09492e-29 -4.93754e-14 -500)
(-3.54757e-24 -4.93754e-14 -500)
(-3.55293e-15 -4.93216e-14 -500)
(-9.13433e-13 3.77295e-13 -500)
(-4.94085e-13 7.82119e-13 -500)
(5.09121e-13 6.82253e-13 -500)
(6.38314e-13 1.46557e-13 -500)
(4.35452e-23 -4.93754e-14 -500)
(1.79651e-24 -4.93754e-14 -500)
(2.67956e-31 -4.93754e-14 -500)
(-5.11955e-32 -4.93754e-14 -500)
(-6.88406e-25 -4.93754e-14 -500)
(-1.82667e-23 -4.93754e-14 -500)
(4.06214e-16 -4.93755e-14 -500)
(-5.03098e-12 -5.66924e-14 -500)
(5.07663e-12 -9.94922e-17 -500)
(-4.93754e-14 4.42287e-22 -500)
(8.36767e-21 6.11255e-20 -500)
(6.89227e-25 6.11256e-20 -500)
(3.30419e-29 6.11256e-20 -500)
(-9.75649e-29 6.11256e-20 -500)
(-4.65232e-24 6.11256e-20 -500)
(-1.2616e-15 6.12663e-20 -500)
(-5.80396e-13 -6.4585e-14 -500)
(-6.25161e-13 -3.54165e-13 -500)
(4.8812e-13 -2.18362e-13 -500)
(6.44753e-13 -4.07854e-14 -500)
(9.3566e-22 6.11386e-20 -500)
(-3.57539e-26 6.11256e-20 -500)
(1.52194e-29 6.11256e-20 -500)
(-3.30183e-29 6.11256e-20 -500)
(-6.88819e-25 6.11256e-20 -500)
(-8.36767e-21 6.11255e-20 -500)
(4.06207e-16 4.42291e-22 -500)
(-5.03098e-12 -9.94922e-17 -500)
(5.07663e-12 -1.3201e-23 -500)
(-4.93754e-14 3.22235e-23 -500)
(8.36767e-21 3.22573e-23 -500)
(6.89227e-25 3.22573e-23 -500)
(3.3054e-29 3.22573e-23 -500)
(-2.32025e-29 3.22573e-23 -500)
(-7.4108e-25 3.22578e-23 -500)
(2.3779e-14 2.24385e-15 -500)
(-1.57529e-12 -6.96453e-14 -500)
(-8.55447e-13 -7.84358e-13 -500)
(1.10311e-12 -2.20669e-13 -500)
(1.18012e-12 -8.00356e-14 -500)
(1.07209e-21 1.08384e-23 -500)
(2.14982e-24 3.22574e-23 -500)
(1.5513e-29 3.22573e-23 -500)
(-3.30138e-29 3.22573e-23 -500)
(-6.88819e-25 3.22573e-23 -500)
(-8.36767e-21 3.22573e-23 -500)
(4.06207e-16 3.22235e-23 -500)
(-5.03098e-12 -1.3201e-23 -500)
(5.07663e-12 6.48353e-29 -500)
(-4.93754e-14 1.93203e-29 -500)
(8.36767e-21 2.27865e-27 -500)
(6.89227e-25 2.2786e-27 -500)
(3.30504e-29 2.27938e-27 -500)
(-5.63228e-29 2.27928e-27 -500)
(-2.56313e-24 9.48272e-28 -500)
(4.13797e-14 -1.40057e-22 -500)
(-1.90756e-12 1.64285e-13 -500)
(-9.42457e-13 3.66853e-13 -500)
(1.43751e-12 -4.57364e-14 -500)
(1.15005e-12 -2.14344e-14 -500)
(-1.43903e-17 9.31776e-24 -500)
(-1.2562e-27 2.14478e-27 -500)
(-1.58267e-32 2.27819e-27 -500)
(-3.30213e-29 2.27679e-27 -500)
(-6.88819e-25 2.2797e-27 -500)
(-8.36767e-21 2.27823e-27 -500)
(4.06207e-16 1.74127e-29 -500)
(-5.03098e-12 6.49705e-29 -500)
(5.07663e-12 -3.36685e-27 -500)
(-4.93754e-14 -3.19603e-28 -500)
(8.36767e-21 -2.11773e-27 -500)
(6.89227e-25 -3.44221e-27 -500)
(3.30557e-29 -2.9249e-27 -500)
(-8.88167e-29 -1.86338e-27 -500)
(-4.31169e-24 -2.37961e-27 -500)
(3.02573e-14 6.79898e-23 -500)
(-5.86091e-13 2.89683e-13 -500)
(-8.38148e-13 1.13454e-12 -500)
(6.23332e-13 -1.17345e-13 -500)
(1.13589e-12 -6.83314e-14 -500)
(3.00611e-21 -1.30367e-22 -500)
(2.24631e-24 -5.52173e-27 -500)
(3.86739e-29 -3.66297e-27 -500)
(-3.30058e-29 -3.96759e-27 -500)
(-6.88819e-25 -4.14533e-28 -500)
(-8.36767e-21 -2.59384e-27 -500)
(4.06207e-16 -1.00617e-27 -500)
(-5.03098e-12 -3.36368e-27 -500)
(5.07663e-12 8.07309e-16 -500)
(-4.93754e-14 -4.97663e-23 -500)
(8.36767e-21 -5.93569e-23 -500)
(6.89181e-25 -4.75325e-23 -500)
(9.10228e-29 -2.51814e-23 -500)
(-8.25102e-29 -6.4797e-24 -500)
(-1.86826e-24 -4.87997e-23 -500)
(3.30488e-14 -1.05734e-24 -500)
(1.53119e-13 -5.88054e-14 -500)
(-8.77017e-13 -1.44686e-13 -500)
(2.02568e-13 2.85379e-13 -500)
(1.40539e-12 2.42375e-14 -500)
(2.41025e-20 -5.54353e-23 -500)
(5.69142e-24 -1.51715e-22 -500)
(1.04475e-28 -7.27243e-23 -500)
(-5.26945e-30 -1.53263e-22 -500)
(-6.88819e-25 -8.2369e-24 -500)
(-8.36767e-21 -7.27176e-23 -500)
(4.06207e-16 -1.39909e-22 -500)
(-5.03098e-12 4.19513e-19 -500)
(5.06715e-12 -2.63992e-14 -500)
(-4.93485e-14 -7.31617e-16 -500)
(1.3981e-20 1.0325e-14 -500)
(-2.78808e-22 1.59539e-14 -500)
(1.25962e-19 3.76513e-14 -500)
(-1.96221e-20 2.32673e-14 -500)
(-4.38569e-24 4.27024e-15 -500)
(2.87533e-15 6.05428e-15 -500)
(-1.00707e-12 -1.3434e-13 -500)
(-5.26363e-13 -5.45791e-13 -500)
(7.46056e-13 3.41696e-13 -500)
(7.77121e-13 1.0201e-13 -500)
(-1.40644e-16 5.41282e-15 -500)
(-1.92097e-19 6.38087e-15 -500)
(9.84548e-21 7.37296e-15 -500)
(4.22665e-20 2.4186e-14 -500)
(-1.73664e-16 4.72709e-14 -500)
(-9.23391e-16 2.9191e-14 -500)
(4.10886e-16 9.51766e-16 -500)
(-5.02839e-12 -9.20425e-15 -500)
(4.61156e-12 -1.05281e-12 -500)
(1.6439e-13 -1.24369e-12 -500)
(1.77316e-14 -7.32214e-13 -500)
(-1.19992e-14 -1.28993e-12 -500)
(1.58843e-13 -1.09657e-12 -500)
(-4.8952e-14 -2.18233e-13 -500)
(-1.09567e-13 -1.56123e-12 -500)
(2.14706e-14 -8.72549e-13 -500)
(-6.52366e-13 -4.48423e-13 -500)
(-3.97704e-13 -3.16669e-14 -500)
(5.92462e-13 -2.09222e-13 -500)
(3.79203e-13 -6.48854e-13 -500)
(-3.70043e-15 -1.11385e-12 -500)
(-3.12863e-15 -1.23374e-12 -500)
(4.6022e-14 -1.13168e-12 -500)
(8.96468e-14 -1.0776e-12 -500)
(9.19383e-14 -6.6604e-13 -500)
(-4.65139e-14 1.05709e-13 -500)
(-1.26288e-13 -8.74072e-13 -500)
(-4.70591e-12 -3.84287e-13 -500)
(3.4433e-12 -6.12224e-13 -500)
(7.69459e-13 -7.64973e-13 -500)
(-2.53304e-13 -8.39634e-13 -500)
(-3.71771e-13 -2.04447e-12 -500)
(7.18899e-13 -5.88925e-13 -500)
(-2.40948e-13 -1.09721e-12 -500)
(-1.58203e-13 -6.85294e-13 -500)
(5.58575e-13 -1.30812e-12 -500)
(-1.63541e-13 -4.75481e-13 -500)
(-1.71993e-13 -1.5194e-13 -500)
(-1.183e-13 -7.66976e-13 -500)
(-1.41878e-14 -8.33423e-13 -500)
(-9.97874e-14 -4.97023e-13 -500)
(-2.10849e-13 -4.8128e-13 -500)
(2.42934e-14 -6.66308e-13 -500)
(2.61839e-13 -6.35335e-13 -500)
(8.36031e-13 -4.5733e-13 -500)
(1.38121e-13 -3.49792e-14 -500)
(-7.18557e-13 -2.77951e-13 -500)
(-4.08287e-12 2.68309e-13 -500)
(3.90259e-12 7.2342e-13 -500)
(1.6895e-13 7.55487e-13 -500)
(-1.29128e-12 6.28424e-13 -500)
(3.36729e-13 1.23786e-12 -500)
(7.56268e-13 8.35406e-13 -500)
(-7.04098e-15 4.25469e-13 -500)
(-4.23828e-15 1.11125e-12 -500)
(1.8908e-13 5.65775e-13 -500)
(3.36453e-13 5.17598e-13 -500)
(-7.58706e-13 1.78039e-14 -500)
(-2.80174e-13 -3.89323e-14 -500)
(8.21794e-13 7.78962e-13 -500)
(4.77448e-13 7.22647e-13 -500)
(-1.34413e-13 1.02209e-12 -500)
(-7.33899e-14 1.00561e-12 -500)
(2.32926e-13 1.04644e-12 -500)
(5.62246e-13 7.58028e-13 -500)
(1.4409e-13 8.10459e-14 -500)
(-4.58035e-14 5.44616e-13 -500)
(-4.90995e-12 4.82432e-13 -500)
(4.86054e-12 4.68449e-13 -500)
(-1.23483e-13 8.07749e-13 -500)
(-2.89426e-13 1.19944e-12 -500)
(7.94738e-14 3.07936e-12 -500)
(1.62587e-13 6.14305e-13 -500)
(-7.22007e-16 1.6235e-12 -500)
(-7.50061e-14 5.97568e-13 -500)
(-2.85805e-14 1.97642e-12 -500)
(-6.77061e-13 4.63618e-13 -500)
(-7.49526e-13 -3.90203e-13 -500)
(6.85259e-13 7.20487e-13 -500)
(9.4225e-13 1.19366e-12 -500)
(1.68758e-13 5.40963e-13 -500)
(-8.49887e-14 5.09589e-13 -500)
(1.80985e-14 1.29896e-12 -500)
(1.51218e-13 8.08975e-13 -500)
(4.40426e-15 7.20957e-13 -500)
(-1.44861e-14 1.50448e-13 -500)
(9.14123e-14 3.96899e-13 -500)
(-4.85619e-12 -5.49505e-13 -500)
(5.07663e-12 1.28744e-19 -500)
(-4.93754e-14 8.15587e-21 -500)
(8.36535e-21 7.62979e-20 -500)
(7.16034e-24 -9.09867e-19 -500)
(8.48741e-26 -1.00922e-21 -500)
(-4.08222e-24 8.08112e-20 -500)
(-1.04632e-24 8.78635e-21 -500)
(6.93816e-16 3.86837e-22 -500)
(-1.91309e-12 1.32198e-13 -500)
(-6.39874e-13 3.07051e-13 -500)
(1.23248e-12 2.03808e-13 -500)
(7.17592e-13 5.64561e-14 -500)
(2.40467e-20 1.19973e-20 -500)
(3.41822e-24 8.52545e-21 -500)
(-3.51356e-24 5.86949e-22 -500)
(9.83884e-25 -2.57002e-15 -500)
(1.03626e-24 4.2842e-20 -500)
(-8.36959e-21 6.64694e-20 -500)
(4.06207e-16 1.91086e-20 -500)
(-5.03098e-12 -2.2575e-16 -500)
(5.07663e-12 5.86653e-23 -500)
(-4.93754e-14 6.51778e-23 -500)
(8.36767e-21 9.18656e-23 -500)
(6.89332e-25 1.24284e-22 -500)
(4.82877e-29 -6.94038e-23 -500)
(-7.2456e-29 8.36589e-23 -500)
(-8.39364e-25 6.7689e-23 -500)
(-2.46706e-16 6.51597e-23 -500)
(-2.21967e-13 1.12089e-13 -500)
(-4.83159e-13 6.53415e-13 -500)
(6.12274e-13 -2.6958e-13 -500)
(7.11841e-13 -1.00265e-13 -500)
(-7.9429e-17 7.69288e-23 -500)
(2.8749e-25 3.75251e-23 -500)
(-5.10119e-29 3.88264e-23 -500)
(-3.2831e-29 4.74931e-23 -500)
(-6.88814e-25 6.86045e-23 -500)
(-8.36767e-21 7.28617e-23 -500)
(4.06207e-16 4.37413e-23 -500)
(-5.03098e-12 7.2283e-23 -500)
(5.07663e-12 4.50579e-27 -500)
(-4.93754e-14 4.79355e-28 -500)
(8.36767e-21 3.32872e-27 -500)
(6.89227e-25 3.9634e-27 -500)
(3.30428e-29 -3.75391e-29 -500)
(-1.04057e-28 3.40114e-27 -500)
(-4.46113e-24 -4.43886e-28 -500)
(1.89262e-14 -1.22805e-22 -500)
(-8.65013e-13 -1.38873e-13 -500)
(-1.0329e-12 -3.84716e-13 -500)
(7.84694e-13 -1.44082e-13 -500)
(1.67476e-12 -1.8965e-14 -500)
(-8.26974e-16 -7.42538e-24 -500)
(1.12379e-24 5.31049e-28 -500)
(1.31143e-29 3.16139e-29 -500)
(-3.30125e-29 1.60905e-27 -500)
(-6.88819e-25 6.4382e-28 -500)
(-8.36767e-21 2.88927e-27 -500)
(4.06207e-16 1.16545e-27 -500)
(-5.03098e-12 2.75765e-27 -500)
(5.07663e-12 -6.69318e-29 -500)
(-4.93754e-14 -1.64659e-29 -500)
(8.36767e-21 -2.27509e-27 -500)
(6.89227e-25 -2.27474e-27 -500)
(3.30383e-29 -2.27858e-27 -500)
(-1.04157e-28 -2.2753e-27 -500)
(-5.72958e-24 -2.2732e-27 -500)
(9.76087e-15 1.19272e-24 -500)
(-1.42223e-12 -2.68512e-15 -500)
(-8.37314e-13 5.07653e-14 -500)
(9.98488e-13 1.45288e-13 -500)
(1.20957e-12 -5.60997e-15 -500)
(-4.91532e-15 -1.26019e-23 -500)
(9.49917e-25 -1.91074e-27 -500)
(1.64926e-31 -2.27635e-27 -500)
(-3.30175e-29 -2.27599e-27 -500)
(-6.88819e-25 -2.27612e-27 -500)
(-8.36767e-21 -2.2757e-27 -500)
(4.06207e-16 -1.67724e-29 -500)
(-5.03098e-12 -6.66774e-29 -500)
(5.07663e-12 1.3201e-23 -500)
(-4.93754e-14 -3.22234e-23 -500)
(8.36767e-21 -3.22528e-23 -500)
(6.89227e-25 -3.22528e-23 -500)
(3.30437e-29 -3.22528e-23 -500)
(-1.03953e-28 -3.22528e-23 -500)
(-3.84992e-24 -3.22525e-23 -500)
(6.80258e-15 6.95548e-23 -500)
(-1.07889e-12 3.06828e-14 -500)
(-1.02538e-12 2.2887e-13 -500)
(7.80958e-13 -8.08107e-14 -500)
(1.51954e-12 -7.26638e-15 -500)
(-5.72303e-16 -7.71539e-23 -500)
(7.60568e-26 -3.22528e-23 -500)
(-1.63464e-32 -3.22528e-23 -500)
(-3.30222e-29 -3.22528e-23 -500)
(-6.88819e-25 -3.22528e-23 -500)
(-8.36767e-21 -3.22528e-23 -500)
(4.06207e-16 -3.22234e-23 -500)
(-5.03098e-12 1.3201e-23 -500)
(5.07663e-12 -8.64569e-22 -500)
(-4.93754e-14 -4.4229e-22 -500)
(8.35701e-21 -6.11255e-20 -500)
(6.89226e-25 -6.11256e-20 -500)
(3.3008e-29 -6.11256e-20 -500)
(-5.90479e-29 -6.11256e-20 -500)
(-2.3794e-24 -6.11256e-20 -500)
(7.68911e-15 -6.12254e-20 -500)
(-1.0918e-12 -3.60766e-14 -500)
(-9.20419e-13 -2.14817e-13 -500)
(8.49156e-13 -8.30003e-14 -500)
(1.16378e-12 8.19452e-14 -500)
(3.08245e-23 -6.11893e-20 -500)
(3.1446e-24 -6.11256e-20 -500)
(6.14417e-31 -6.11256e-20 -500)
(-3.29682e-29 -6.11256e-20 -500)
(-6.88819e-25 -6.11256e-20 -500)
(-8.35701e-21 -6.11255e-20 -500)
(4.06207e-16 -4.42295e-22 -500)
(-5.03098e-12 -8.64569e-22 -500)
(5.07663e-12 1.45757e-15 -500)
(-4.93771e-14 4.06256e-16 -500)
(2.17925e-23 4.06196e-16 -500)
(6.89352e-25 4.06196e-16 -500)
(1.24256e-31 4.06196e-16 -500)
(-5.5818e-29 4.06196e-16 -500)
(-5.35445e-24 4.06196e-16 -500)
(8.44796e-15 -1.3502e-16 -500)
(-1.40669e-12 4.39775e-14 -500)
(-9.03375e-13 -1.93582e-13 -500)
(6.80982e-13 -3.13476e-13 -500)
(1.11894e-12 -4.2732e-14 -500)
(-1.90877e-17 4.06196e-16 -500)
(3.13597e-24 4.06196e-16 -500)
(5.89317e-29 4.06196e-16 -500)
(-9.56092e-32 4.06196e-16 -500)
(-6.89351e-25 4.06196e-16 -500)
(-2.17928e-23 4.06196e-16 -500)
(4.07894e-16 4.06256e-16 -500)
(-5.03098e-12 1.45757e-15 -500)
(5.08067e-12 -5.03564e-12 -500)
(-5.66925e-14 -5.03098e-12 -500)
(-9.9492e-17 -5.03098e-12 -500)
(8.39838e-25 -5.03098e-12 -500)
(1.54265e-29 -5.03098e-12 -500)
(-3.21233e-31 -5.03098e-12 -500)
(1.48332e-18 -5.03098e-12 -500)
(1.639e-14 -5.00899e-12 -500)
(-3.00959e-13 -4.73216e-12 -500)
(-4.52356e-13 -3.70335e-12 -500)
(5.79052e-13 -3.40402e-12 -500)
(8.49843e-13 -4.77631e-12 -500)
(-8.44321e-19 -5.03098e-12 -500)
(2.87603e-24 -5.03098e-12 -500)
(4.35915e-29 -5.03098e-12 -500)
(-1.53992e-29 -5.03098e-12 -500)
(-8.3981e-25 -5.03098e-12 -500)
(-1.03338e-21 -5.03098e-12 -500)
(1.4576e-15 -5.03098e-12 -500)
(-5.03564e-12 -5.03564e-12 -500)
(5.91971e-12 5.91971e-12 -500)
(1.01444e-14 5.92072e-12 -500)
(2.65811e-24 5.92072e-12 -500)
(8.38743e-25 5.92072e-12 -500)
(2.51685e-31 5.92072e-12 -500)
(-3.98157e-31 5.92072e-12 -500)
(5.8432e-16 5.92072e-12 -500)
(9.32447e-16 5.9207e-12 -500)
(7.48437e-14 5.65482e-12 -500)
(-1.22417e-12 4.73975e-12 -500)
(1.05374e-13 2.99316e-12 -500)
(1.72893e-12 4.6103e-12 -500)
(3.21435e-23 5.92072e-12 -500)
(1.32636e-24 5.92072e-12 -500)
(1.95174e-31 5.92072e-12 -500)
(-2.32213e-31 5.92072e-12 -500)
(-8.38743e-25 5.92072e-12 -500)
(-2.65811e-24 5.92072e-12 -500)
(-3.56426e-15 5.92072e-12 -500)
(-5.92624e-12 5.91971e-12 -500)
(5.92072e-12 1.01435e-14 -500)
(1.00644e-14 1.00644e-14 -500)
(1.82663e-23 1.00644e-14 -500)
(6.88425e-25 1.00644e-14 -500)
(8.98695e-32 1.00644e-14 -500)
(-8.40921e-32 1.00644e-14 -500)
(-6.96359e-25 1.00644e-14 -500)
(-4.13817e-16 1.00644e-14 -500)
(-1.07935e-12 -2.89078e-13 -500)
(-7.5234e-13 -7.9383e-13 -500)
(7.65981e-13 7.86066e-13 -500)
(1.09264e-12 7.03969e-13 -500)
(8.22488e-23 1.00644e-14 -500)
(3.99823e-24 1.00644e-14 -500)
(6.52007e-31 1.00644e-14 -500)
(-4.20866e-32 1.00644e-14 -500)
(-6.88424e-25 1.00644e-14 -500)
(-1.82663e-23 1.00644e-14 -500)
(-4.60747e-15 1.00644e-14 -500)
(-5.92731e-12 1.01435e-14 -500)
(5.92072e-12 -1.66227e-22 -500)
(1.00644e-14 4.42293e-22 -500)
(1.82668e-23 4.42312e-22 -500)
(6.88425e-25 4.42312e-22 -500)
(7.84852e-32 4.42312e-22 -500)
(-4.75171e-31 4.42312e-22 -500)
(-4.15188e-24 4.42312e-22 -500)
(4.67401e-15 4.31232e-22 -500)
(-1.61072e-12 -7.66679e-14 -500)
(-9.6405e-13 -1.48537e-13 -500)
(9.747e-13 -4.61976e-13 -500)
(1.31988e-12 -3.70376e-14 -500)
(-1.58513e-21 4.66115e-22 -500)
(1.6507e-24 4.42312e-22 -500)
(3.13357e-31 4.42312e-22 -500)
(-4.7871e-32 4.42312e-22 -500)
(-6.88424e-25 4.42312e-22 -500)
(-1.82668e-23 4.42312e-22 -500)
(-4.60747e-15 4.42293e-22 -500)
(-5.92731e-12 -1.66227e-22 -500)
(5.92072e-12 -1.32039e-23 -500)
(1.00644e-14 3.22258e-23 -500)
(1.82668e-23 3.22258e-23 -500)
(6.88425e-25 3.22258e-23 -500)
(8.07081e-32 3.22258e-23 -500)
(-3.88473e-31 3.22258e-23 -500)
(-3.22369e-24 3.22258e-23 -500)
(6.48435e-15 3.53423e-23 -500)
(-1.12871e-12 9.80545e-14 -500)
(-1.13182e-12 1.46033e-13 -500)
(9.27167e-13 3.99303e-13 -500)
(1.79172e-12 2.22024e-13 -500)
(8.04696e-23 3.76248e-23 -500)
(4.01337e-24 3.22258e-23 -500)
(6.49996e-31 3.22258e-23 -500)
(-4.26773e-32 3.22258e-23 -500)
(-6.88424e-25 3.22258e-23 -500)
(-1.82668e-23 3.22258e-23 -500)
(-4.60747e-15 3.22258e-23 -500)
(-5.92731e-12 -1.32039e-23 -500)
(5.92072e-12 -1.00741e-29 -500)
(1.00644e-14 1.90822e-29 -500)
(1.82668e-23 1.90576e-29 -500)
(6.88425e-25 1.96723e-29 -500)
(7.93054e-32 2.051e-29 -500)
(-4.6759e-31 1.98092e-29 -500)
(-4.37302e-24 5.62327e-30 -500)
(3.20909e-15 -5.26343e-23 -500)
(-7.50979e-13 1.78773e-13 -500)
(-4.97811e-13 5.07866e-13 -500)
(7.87798e-13 4.51394e-13 -500)
(2.02728e-13 9.00041e-14 -500)
(6.14583e-16 6.63321e-23 -500)
(1.84084e-24 4.3145e-29 -500)
(3.18528e-31 1.96994e-29 -500)
(-4.8585e-32 1.82253e-29 -500)
(-6.88424e-25 1.98935e-29 -500)
(-1.82668e-23 1.92114e-29 -500)
(-4.60747e-15 1.73384e-29 -500)
(-5.92731e-12 -9.76874e-30 -500)
(5.92072e-12 -5.64689e-29 -500)
(1.00644e-14 -4.03118e-29 -500)
(1.82668e-23 -3.9898e-29 -500)
(6.88425e-25 -2.48272e-29 -500)
(7.58238e-32 -6.35598e-31 -500)
(-6.12598e-31 -1.76641e-29 -500)
(-4.96544e-24 1.35144e-29 -500)
(4.98979e-15 9.08025e-23 -500)
(-4.54755e-13 9.42316e-15 -500)
(-7.65923e-13 1.76748e-13 -500)
(4.58444e-13 2.76256e-14 -500)
(1.13885e-12 -1.03469e-13 -500)
(2.98097e-23 -5.62235e-23 -500)
(1.40176e-24 -9.02763e-29 -500)
(2.00633e-31 -2.88504e-29 -500)
(-4.56438e-32 -6.41318e-29 -500)
(-6.88424e-25 -2.06528e-29 -500)