/*--------------------------------*- C++ -*----------------------------------*\
| =========                 |                                                 |
| \\      /  F ield         | OpenFOAM: The Open Source CFD Toolbox           |
|  \\    /   O peration     | Version:  2412                                  |
|   \\  /    A nd           | Website:  www.openfoam.com                      |
|    \\/     M anipulation  |                                                 |
\*---------------------------------------------------------------------------*/
FoamFile
{
    version     2.0;
    format      ascii;
    arch        "LSB;label=32;scalar=64";
    class       volVectorField;
    location    "0.014";
    object      U;
}
// * * * * * * * * * * * * * * * * * * * * * * * * * * * * * * * * * * * * * //

dimensions      [0 1 -1 0 0 0 0];

internalField   nonuniform List<vector> 
124215
(
(1.93364e-11 1.93364e-11 -500)
(-2.76151e-13 1.87782e-11 -500)
(-3.31447e-15 1.88849e-11 -500)
(3.01146e-24 1.88849e-11 -500)
(2.45829e-29 1.88849e-11 -500)
(-6.27469e-29 1.88849e-11 -500)
(1.88207e-14 1.88849e-11 -500)
(-2.13452e-13 1.86896e-11 -500)
(-1.21941e-12 1.55142e-11 -500)
(-1.53251e-12 1.18435e-11 -500)
(4.28884e-13 1.0492e-11 -500)
(2.76115e-12 1.37183e-11 -500)
(2.58562e-20 1.88849e-11 -500)
(5.53673e-24 1.88849e-11 -500)
(1.83938e-28 1.88849e-11 -500)
(-2.44595e-29 1.88849e-11 -500)
(-3.01142e-24 1.88849e-11 -500)
(-1.66514e-21 1.88849e-11 -500)
(4.54336e-13 1.87747e-11 -500)
(-1.95173e-11 1.93364e-11 -500)
(1.87782e-11 -2.75698e-13 -500)
(1.80543e-13 1.80543e-13 -500)
(1.05023e-13 1.80543e-13 -500)
(1.18161e-24 1.80543e-13 -500)
(1.45996e-31 1.80543e-13 -500)
(-1.1369e-28 1.80543e-13 -500)
(-7.10879e-24 1.80543e-13 -500)
(-6.94351e-15 1.80479e-13 -500)
(-4.31642e-13 2.17851e-12 -500)
(-4.12587e-13 3.09127e-12 -500)
(9.88912e-14 4.25186e-12 -500)
(4.56107e-13 3.62457e-12 -500)
(1.08056e-22 1.80543e-13 -500)
(4.37265e-24 1.80543e-13 -500)
(6.62676e-31 1.80543e-13 -500)
(-9.45276e-32 1.80543e-13 -500)
(1.99269e-15 1.80543e-13 -500)
(-1.10473e-13 1.80543e-13 -500)
(1.68577e-15 1.80543e-13 -500)
(-1.89578e-11 -2.75698e-13 -500)
(1.88849e-11 -3.32868e-15 -500)
(1.80543e-13 1.05023e-13 -500)
(-1.81671e-15 -1.81662e-15 -500)
(1.18292e-24 -1.81662e-15 -500)
(5.28941e-29 -1.81662e-15 -500)
(-1.33901e-28 -1.81662e-15 -500)
(5.63527e-15 -1.81662e-15 -500)
(-2.19681e-13 -4.4434e-14 -500)
(-1.2509e-12 -4.29327e-13 -500)
(-6.07046e-13 -1.04534e-12 -500)
(1.20059e-12 -3.48533e-13 -500)
(1.98346e-12 -7.36175e-15 -500)
(2.12519e-23 -1.81662e-15 -500)
(1.02074e-24 -1.81662e-15 -500)
(2.44736e-29 -1.81662e-15 -500)
(-5.28429e-29 -1.81662e-15 -500)
(-1.18227e-24 -1.81662e-15 -500)
(-1.33972e-20 -1.81662e-15 -500)
(3.03218e-15 1.08542e-13 -500)
(-1.90674e-11 -3.32868e-15 -500)
(1.88849e-11 2.85583e-23 -500)
(1.80543e-13 4.87245e-23 -500)
(-1.81671e-15 4.87785e-23 -500)
(1.18292e-24 4.87785e-23 -500)
(5.29e-29 4.87785e-23 -500)
(-3.73245e-29 4.87785e-23 -500)
(1.35759e-15 4.8779e-23 -500)
(-5.48538e-13 -1.55139e-13 -500)
(-2.71552e-12 -8.34368e-13 -500)
(-7.50081e-13 -1.59304e-12 -500)
(2.02536e-12 -7.14436e-13 -500)
(8.80494e-13 -2.5968e-13 -500)
(-9.23393e-16 1.09282e-23 -500)
(6.51368e-24 4.87786e-23 -500)
(2.5328e-29 4.87785e-23 -500)
(-5.28269e-29 4.87785e-23 -500)
(-1.18227e-24 4.87785e-23 -500)
(-1.33972e-20 4.87785e-23 -500)
(3.03218e-15 4.87245e-23 -500)
(-1.90674e-11 2.85583e-23 -500)
(1.88849e-11 1.38484e-28 -500)
(1.80543e-13 3.55967e-29 -500)
(-1.81671e-15 3.64015e-27 -500)
(1.18292e-24 3.63879e-27 -500)
(5.28715e-29 3.64077e-27 -500)
(-9.10803e-29 3.63967e-27 -500)
(1.82373e-15 1.50805e-27 -500)
(-4.23765e-13 -4.55881e-14 -500)
(-4.66153e-12 3.30303e-14 -500)
(-1.67815e-12 5.0351e-13 -500)
(2.66551e-12 2.0327e-13 -500)
(3.1054e-12 -2.05366e-13 -500)
(4.86677e-17 6.25885e-23 -500)
(2.47421e-24 3.4391e-27 -500)
(3.88198e-31 3.63775e-27 -500)
(-5.28407e-29 3.63694e-27 -500)
(-1.18227e-24 3.64116e-27 -500)
(-1.33972e-20 3.63861e-27 -500)
(3.03218e-15 3.17168e-29 -500)
(-1.90674e-11 1.39012e-28 -500)
(1.88849e-11 -5.42696e-27 -500)
(1.80543e-13 1.26632e-27 -500)
(-1.81671e-15 -2.91622e-27 -500)
(1.18292e-24 -5.54463e-27 -500)
(5.28943e-29 -4.51545e-27 -500)
(-1.42335e-28 -3.02728e-27 -500)
(1.90414e-14 -2.8757e-27 -500)
(-8.62981e-14 2.60316e-22 -500)
(-2.73788e-12 3.69685e-13 -500)
(-6.97953e-13 4.13695e-13 -500)
(1.76422e-12 3.70779e-13 -500)
(1.27311e-12 -1.02028e-13 -500)
(2.46945e-14 -2.07435e-22 -500)
(6.32156e-24 -8.7909e-27 -500)
(6.23488e-29 -5.90571e-27 -500)
(-5.2811e-29 -6.35629e-27 -500)
(-1.18227e-24 -6.93034e-28 -500)
(-1.33972e-20 -3.99563e-27 -500)
(3.03218e-15 -1.61681e-27 -500)
(-1.90674e-11 -5.41355e-27 -500)
(1.88849e-11 1.94621e-14 -500)
(1.80543e-13 -4.10536e-23 -500)
(-1.81671e-15 -1.13782e-22 -500)
(1.18284e-24 2.70998e-15 -500)
(1.46193e-28 -1.77565e-15 -500)
(-1.34029e-28 -1.85564e-15 -500)
(-2.89578e-15 -7.16678e-23 -500)
(-6.10737e-13 -4.12856e-24 -500)
(-3.66001e-12 -5.57619e-14 -500)
(-8.65396e-13 -3.72161e-13 -500)
(2.11374e-12 -1.34009e-12 -500)
(2.33572e-12 -5.10663e-13 -500)
(2.59509e-15 -7.78234e-23 -500)
(1.00076e-23 -3.9376e-22 -500)
(1.46206e-28 -2.12835e-22 -500)
(-9.72674e-30 5.54857e-16 -500)
(-1.18223e-24 2.0155e-15 -500)
(-1.33972e-20 4.14221e-15 -500)
(3.03218e-15 -2.31899e-22 -500)
(-1.90674e-11 1.3712e-14 -500)
(1.87291e-11 -1.79528e-13 -500)
(1.80511e-13 3.25265e-15 -500)
(-1.8167e-15 1.37277e-14 -500)
(-4.38528e-14 -2.82834e-13 -500)
(8.58848e-15 -6.02538e-13 -500)
(-1.53089e-14 -2.90913e-13 -500)
(6.4988e-19 6.45457e-15 -500)
(-1.06043e-14 9.17865e-15 -500)
(-3.44643e-12 2.41083e-13 -500)
(-1.68967e-12 7.87807e-13 -500)
(1.81223e-12 -2.66736e-13 -500)
(4.09939e-12 -3.96886e-14 -500)
(4.23683e-16 7.9608e-15 -500)
(-1.89213e-16 -2.67806e-15 -500)
(1.55892e-20 6.48339e-15 -500)
(-1.52006e-14 -2.68388e-13 -500)
(1.27788e-13 -1.12454e-12 -500)
(1.64133e-13 -3.89721e-13 -500)
(1.90547e-15 4.48094e-15 -500)
(-1.90601e-11 -9.9218e-14 -500)
(1.52519e-11 -1.53183e-12 -500)
(2.33841e-12 -1.60885e-12 -500)
(-4.79767e-13 -7.12696e-13 -500)
(-5.5168e-13 -3.37194e-12 -500)
(7.93982e-14 -2.70031e-12 -500)
(-1.25655e-13 -2.82082e-12 -500)
(3.69914e-13 -3.8911e-12 -500)
(-3.099e-13 -3.16421e-13 -500)
(-1.74628e-12 -3.50116e-12 -500)
(-8.12945e-13 -7.81425e-13 -500)
(9.58405e-13 2.51543e-13 -500)
(1.95574e-12 -2.36684e-12 -500)
(2.06221e-13 -9.30596e-13 -500)
(-7.62187e-13 -2.11227e-12 -500)
(-4.74009e-13 -3.05092e-12 -500)
(-4.3899e-13 -4.2976e-12 -500)
(7.07619e-13 -4.92028e-12 -500)
(9.35325e-13 -2.04916e-12 -500)
(-1.07392e-12 -5.34138e-13 -500)
(-1.67519e-11 -4.09018e-12 -500)
(1.0408e-11 -1.93769e-12 -500)
(3.28922e-12 -9.78501e-13 -500)
(-8.70465e-13 -2.01344e-13 -500)
(-1.19342e-12 -1.01987e-12 -500)
(-4.85159e-14 -6.32953e-13 -500)
(-7.40063e-14 -2.09159e-12 -500)
(1.25121e-12 -8.3006e-13 -500)
(-8.98604e-13 -6.20021e-13 -500)
(-2.14706e-12 -4.54671e-13 -500)
(2.45191e-12 3.72628e-13 -500)
(1.482e-13 -1.30132e-12 -500)
(6.33342e-13 -1.64071e-12 -500)
(9.67371e-13 -1.50795e-12 -500)
(-1.196e-12 -2.3212e-13 -500)
(-1.53414e-12 -6.68752e-13 -500)
(-1.43898e-12 -1.37153e-12 -500)
(1.21022e-12 -1.59197e-12 -500)
(2.06822e-12 9.13906e-14 -500)
(-2.5859e-12 -3.65201e-13 -500)
(-1.0423e-11 -9.58598e-13 -500)
(1.01256e-11 8.0027e-13 -500)
(4.29757e-12 1.12867e-12 -500)
(1.16468e-14 1.06346e-12 -500)
(-2.36393e-13 1.80159e-12 -500)
(-1.09534e-12 1.63121e-12 -500)
(7.9926e-14 2.02414e-12 -500)
(1.25347e-12 1.83505e-12 -500)
(-2.01957e-13 7.72719e-13 -500)
(-5.1402e-13 2.31022e-12 -500)
(-2.10488e-12 3.0338e-14 -500)
(-8.37791e-13 1.48303e-13 -500)
(1.74859e-12 1.87073e-12 -500)
(2.4327e-12 1.21875e-12 -500)
(9.60517e-13 1.25031e-12 -500)
(-1.69518e-12 2.13169e-12 -500)
(-1.13132e-12 2.49319e-12 -500)
(1.90333e-12 3.1538e-12 -500)
(9.29855e-13 1.52181e-12 -500)
(-4.31673e-12 8.42557e-13 -500)
(-1.13181e-11 1.94636e-12 -500)
(1.33986e-11 3.74924e-12 -500)
(3.8738e-12 1.74398e-12 -500)
(-6.80625e-14 2.52748e-13 -500)
(5.06742e-14 2.34719e-12 -500)
(-6.94789e-13 2.16685e-13 -500)
(-1.51685e-13 5.49678e-12 -500)
(6.6876e-13 5.58598e-13 -500)
(-8.43296e-15 1.75213e-12 -500)
(-2.9887e-12 7.40226e-13 -500)
(-1.41312e-12 1.0199e-13 -500)
(1.59851e-12 1.46726e-12 -500)
(1.68279e-12 2.9119e-12 -500)
(7.91357e-13 2.72524e-12 -500)
(4.67961e-13 5.0573e-13 -500)
(-3.35931e-13 5.16331e-13 -500)
(-6.69844e-13 3.27493e-12 -500)
(5.68704e-13 3.52566e-12 -500)
(3.83681e-13 -2.1763e-13 -500)
(-1.37331e-12 1.21833e-12 -500)
(-1.62742e-11 2.60001e-12 -500)
(1.88849e-11 -8.85209e-17 -500)
(1.80543e-13 2.24816e-15 -500)
(-1.81671e-15 5.58979e-16 -500)
(9.80342e-24 -1.85397e-17 -500)
(-2.6115e-15 1.08455e-14 -500)
(-2.45078e-24 1.36032e-19 -500)
(-5.925e-24 5.84451e-15 -500)
(2.21463e-15 1.61782e-21 -500)
(-1.34545e-12 2.13545e-13 -500)
(-1.6212e-12 4.0568e-13 -500)
(1.36513e-12 1.18948e-12 -500)
(2.58513e-12 4.13982e-13 -500)
(2.74257e-14 -2.69813e-17 -500)
(3.48484e-16 2.78503e-14 -500)
(-5.06268e-24 -2.07966e-14 -500)
(2.23181e-24 -2.84821e-15 -500)
(4.49079e-24 -2.02441e-17 -500)
(-1.33989e-20 5.37862e-15 -500)
(3.03218e-15 2.24818e-15 -500)
(-1.90674e-11 -6.43256e-16 -500)
(1.88849e-11 2.38897e-22 -500)
(1.80543e-13 1.04123e-22 -500)
(-1.81671e-15 2.10116e-22 -500)
(1.18309e-24 2.36004e-22 -500)
(9.99306e-29 -1.30012e-23 -500)
(-1.1534e-28 1.2108e-22 -500)
(-1.89887e-24 1.12578e-22 -500)
(4.13744e-15 1.36905e-22 -500)
(-3.81042e-12 -1.19849e-13 -500)
(-2.37264e-13 4.02079e-13 -500)
(1.94628e-12 1.09e-12 -500)
(8.59918e-13 3.53954e-13 -500)
(2.38932e-14 1.60732e-22 -500)
(3.13418e-24 1.23794e-22 -500)
(-5.91092e-29 9.82596e-23 -500)
(-5.24109e-29 1.40748e-22 -500)
(-1.18226e-24 1.44755e-22 -500)
(-1.33972e-20 1.11124e-22 -500)
(3.03218e-15 7.58403e-23 -500)
(-1.90674e-11 2.36897e-22 -500)
(1.88849e-11 7.34506e-27 -500)
(1.80543e-13 5.90769e-28 -500)
(-1.81671e-15 5.35883e-27 -500)
(1.18292e-24 6.35595e-27 -500)
(5.29009e-29 9.61763e-30 -500)
(-1.66655e-28 5.31905e-27 -500)
(2.10337e-14 -8.95476e-28 -500)
(-1.63328e-13 1.64153e-14 -500)
(-1.76568e-12 2.50843e-13 -500)
(-5.78027e-13 8.80426e-13 -500)
(8.96042e-13 -1.72524e-13 -500)
(1.01885e-12 7.84226e-14 -500)
(2.62521e-15 2.55875e-23 -500)
(5.09924e-24 9.09715e-28 -500)
(2.14941e-29 -3.95732e-28 -500)
(-5.28218e-29 2.50804e-27 -500)
(-1.18227e-24 1.05281e-27 -500)
(-1.33972e-20 4.50309e-27 -500)
(3.03218e-15 1.69285e-27 -500)
(-1.90674e-11 4.54638e-27 -500)
(1.88849e-11 -1.36576e-28 -500)
(1.80543e-13 -3.04107e-29 -500)
(-1.81671e-15 -3.63374e-27 -500)
(1.18292e-24 -3.63368e-27 -500)
(5.28766e-29 -3.63842e-27 -500)
(-1.66811e-28 -3.63552e-27 -500)
(-1.0621e-23 -3.62354e-27 -500)
(3.92346e-15 3.8766e-16 -500)
(-1.47208e-12 3.56189e-13 -500)
(-6.90317e-13 4.13187e-13 -500)
(1.0813e-12 7.66015e-13 -500)
(1.33436e-12 3.07547e-13 -500)
(-2.46892e-15 1.40128e-23 -500)
(2.26637e-24 -3.03852e-27 -500)
(3.63926e-31 -3.63608e-27 -500)
(-5.28405e-29 -3.63514e-27 -500)
(-1.18227e-24 -3.63587e-27 -500)
(-1.33972e-20 -3.63627e-27 -500)
(3.03218e-15 -3.07592e-29 -500)
(-1.90674e-11 -1.36562e-28 -500)
(1.88849e-11 -2.85582e-23 -500)
(1.80543e-13 1.99269e-15 -500)
(-1.81671e-15 -4.87712e-23 -500)
(1.18292e-24 -4.87712e-23 -500)
(5.2889e-29 -4.87712e-23 -500)
(-1.66352e-28 -4.87712e-23 -500)
(-6.29918e-24 -4.87707e-23 -500)
(1.10209e-14 1.37e-22 -500)
(-8.36193e-13 2.18379e-13 -500)
(-1.61856e-13 8.15191e-14 -500)
(6.11093e-13 -7.18122e-13 -500)
(-5.08152e-13 -2.82633e-13 -500)
(1.24265e-14 -1.96599e-22 -500)
(2.80135e-24 -4.87713e-23 -500)
(3.67028e-31 -4.87712e-23 -500)
(-5.28429e-29 -4.87712e-23 -500)
(-1.18227e-24 -4.87712e-23 -500)
(-1.33972e-20 -4.87712e-23 -500)
(3.03218e-15 2.09793e-15 -500)
(-1.90674e-11 -2.85582e-23 -500)
(1.88849e-11 -2.27662e-21 -500)
(1.80543e-13 -1.10473e-13 -500)
(-1.81671e-15 -9.77821e-20 -500)
(1.18292e-24 -9.77822e-20 -500)
(5.28295e-29 -9.77822e-20 -500)
(-9.45447e-29 -9.77822e-20 -500)
(-4.51824e-24 -9.77822e-20 -500)
(8.69626e-15 3.55385e-15 -500)
(-1.30217e-12 2.85618e-13 -500)
(-1.13177e-12 4.95659e-13 -500)
(9.20257e-13 -1.11431e-12 -500)
(2.36555e-12 -3.60508e-13 -500)
(3.98125e-15 -9.78411e-20 -500)
(8.31894e-24 -9.77822e-20 -500)
(1.53438e-30 -9.77822e-20 -500)
(-5.27515e-29 -9.77822e-20 -500)
(-1.18227e-24 -9.77822e-20 -500)
(-1.33802e-20 -9.77821e-20 -500)
(3.03218e-15 -1.11995e-13 -500)
(-1.90674e-11 -2.27662e-21 -500)
(1.87747e-11 4.53506e-13 -500)
(1.80541e-13 1.68586e-15 -500)
(1.08542e-13 3.03219e-15 -500)
(1.18321e-24 3.03219e-15 -500)
(2.09728e-31 3.03219e-15 -500)
(-8.96061e-29 3.03219e-15 -500)
(-1.01564e-23 3.03219e-15 -500)
(1.05067e-13 -8.03825e-14 -500)
(6.6544e-13 -7.99013e-13 -500)
(-5.04098e-13 -2.13933e-12 -500)
(1.455e-14 -1.70184e-12 -500)
(9.99996e-13 -3.72882e-13 -500)
(-3.24605e-17 3.03219e-15 -500)
(6.90687e-24 3.03219e-15 -500)
(9.46263e-29 3.03219e-15 -500)
(-1.63455e-31 3.03219e-15 -500)
(2.09793e-15 3.03219e-15 -500)
(-1.11995e-13 3.03219e-15 -500)
(1.67513e-15 1.67274e-15 -500)
(-1.89561e-11 4.53191e-13 -500)
(1.93364e-11 -1.95173e-11 -500)
(-2.75698e-13 -1.89578e-11 -500)
(-3.32868e-15 -1.90674e-11 -500)
(3.10967e-24 -1.90674e-11 -500)
(2.49985e-29 -1.90674e-11 -500)
(-6.08013e-31 -1.90674e-11 -500)
(3.41849e-15 -1.90674e-11 -500)
(-9.13862e-13 -1.87911e-11 -500)
(-3.58477e-12 -1.71633e-11 -500)
(-2.86882e-13 -1.35935e-11 -500)
(2.06488e-12 -1.29954e-11 -500)
(9.70491e-13 -1.70365e-11 -500)
(-1.22883e-14 -1.90674e-11 -500)
(5.47711e-24 -1.90674e-11 -500)
(6.98582e-29 -1.90674e-11 -500)
(-2.48687e-29 -1.90674e-11 -500)
(-3.10962e-24 -1.90674e-11 -500)
(-1.69364e-21 -1.90674e-11 -500)
(4.53192e-13 -1.89561e-11 -500)
(-1.95168e-11 -1.95168e-11 -500)
(3.94753e-12 3.94753e-12 -500)
(-5.03127e-14 3.99557e-12 -500)
(-1.39885e-14 3.98841e-12 -500)
(1.80993e-24 3.98841e-12 -500)
(2.27939e-29 3.98841e-12 -500)
(-5.69349e-29 3.98841e-12 -500)
(1.47681e-14 3.98841e-12 -500)
(-8.2767e-14 3.97689e-12 -500)
(-1.04398e-12 3.77636e-12 -500)
(-1.14863e-12 4.03424e-12 -500)
(4.92551e-13 4.12361e-12 -500)
(1.49326e-12 3.80833e-12 -500)
(-1.98252e-19 3.98841e-12 -500)
(3.65919e-24 3.98841e-12 -500)
(1.71094e-28 3.98841e-12 -500)
(-2.27445e-29 3.98841e-12 -500)
(-1.80988e-24 3.98841e-12 -500)
(-1.51666e-21 3.98841e-12 -500)
(-4.00115e-14 3.99592e-12 -500)
(-3.85073e-12 3.94753e-12 -500)
(3.99557e-12 -5.09441e-14 -500)
(-8.537e-14 -8.537e-14 -500)
(-1.61788e-14 -8.53699e-14 -500)
(1.48522e-24 -8.53699e-14 -500)
(1.79209e-31 -8.53699e-14 -500)
(-1.04274e-28 -8.53699e-14 -500)
(-5.60526e-24 -8.53699e-14 -500)
(-4.78401e-15 -8.53171e-14 -500)
(-5.75281e-13 -9.45745e-14 -500)
(-4.33722e-13 3.56789e-13 -500)
(2.25121e-13 6.45796e-13 -500)
(5.35336e-13 -1.24945e-13 -500)
(1.1845e-22 -8.53699e-14 -500)
(5.2998e-24 -8.53699e-14 -500)
(8.27869e-31 -8.53699e-14 -500)
(-1.04452e-31 -8.53699e-14 -500)
(-1.48522e-24 -8.53699e-14 -500)
(6.91515e-15 -8.53699e-14 -500)
(3.61059e-15 -8.537e-14 -500)
(-3.89766e-12 -5.09441e-14 -500)
(3.98841e-12 -1.40251e-14 -500)
(-8.537e-14 -1.61788e-14 -500)
(-1.10517e-14 -1.10516e-14 -500)
(1.48643e-24 -1.10516e-14 -500)
(4.85912e-29 -1.10516e-14 -500)
(-1.4362e-28 -1.10516e-14 -500)
(-9.462e-24 -1.10516e-14 -500)
(5.06131e-14 -4.21661e-15 -500)
(-1.12949e-12 -2.01719e-13 -500)
(-9.36783e-13 -9.95972e-13 -500)
(7.56707e-13 -6.04029e-13 -500)
(1.02131e-12 -1.67929e-13 -500)
(-1.72822e-20 -1.10516e-14 -500)
(1.03675e-24 -1.10516e-14 -500)
(2.25617e-29 -1.10516e-14 -500)
(-4.85351e-29 -1.10516e-14 -500)
(-1.48583e-24 -1.10516e-14 -500)
(-1.23042e-20 -1.10516e-14 -500)
(3.53519e-15 -1.64202e-14 -500)
(-3.89018e-12 -1.40251e-14 -500)
(3.98841e-12 -2.84826e-23 -500)
(-8.537e-14 6.95223e-23 -500)
(-1.10517e-14 6.95721e-23 -500)
(1.48643e-24 6.95721e-23 -500)
(4.86091e-29 6.95721e-23 -500)
(-3.43795e-29 6.95721e-23 -500)
(-3.54166e-24 6.95727e-23 -500)
(1.4543e-13 3.81073e-14 -500)
(-2.07383e-12 -1.76165e-14 -500)
(-1.25291e-12 -6.03581e-13 -500)
(1.68312e-12 -2.13363e-13 -500)
(2.00049e-12 2.91225e-14 -500)
(1.63254e-21 3.71874e-23 -500)
(6.03466e-24 6.95722e-23 -500)
(2.32593e-29 6.95721e-23 -500)
(-4.85241e-29 6.95721e-23 -500)
(-1.48583e-24 6.95721e-23 -500)
(-1.23042e-20 6.95721e-23 -500)
(3.53519e-15 6.95223e-23 -500)
(-3.89018e-12 -2.84826e-23 -500)
(3.98841e-12 8.83999e-29 -500)
(-8.537e-14 4.15779e-29 -500)
(-1.10517e-14 3.36046e-27 -500)
(1.48643e-24 3.3605e-27 -500)
(4.86039e-29 3.3622e-27 -500)
(-8.30478e-29 3.36162e-27 -500)
(-6.69322e-24 1.39829e-27 -500)
(1.75727e-13 1.52632e-14 -500)
(-2.11343e-12 3.61616e-13 -500)
(-1.05641e-12 6.61948e-13 -500)
(1.48657e-12 3.77001e-13 -500)
(1.11224e-12 1.60286e-13 -500)
(5.99326e-16 6.21968e-23 -500)
(1.47768e-24 3.18119e-27 -500)
(2.31858e-31 3.36016e-27 -500)
(-4.8539e-29 3.35711e-27 -500)
(-1.48583e-24 3.36239e-27 -500)
(-1.23042e-20 3.35985e-27 -500)
(3.53519e-15 3.76498e-29 -500)
(-3.89018e-12 8.88244e-29 -500)
(3.98841e-12 -4.98209e-27 -500)
(-8.537e-14 -4.95677e-28 -500)
(-1.10517e-14 -3.13452e-27 -500)
(1.48643e-24 -5.07788e-27 -500)
(4.86096e-29 -4.30199e-27 -500)
(-1.30874e-28 -2.75348e-27 -500)
(-9.70899e-24 -3.48723e-27 -500)
(5.45854e-14 1.54211e-22 -500)
(-9.02929e-14 4.67513e-13 -500)
(-6.21929e-13 1.74576e-12 -500)
(5.86344e-13 6.44613e-13 -500)
(1.24982e-12 5.75034e-14 -500)
(4.29365e-21 -2.18283e-22 -500)
(4.29487e-24 -8.17003e-27 -500)
(5.69542e-29 -5.39837e-27 -500)
(-4.85158e-29 -5.87002e-27 -500)
(-1.48583e-24 -6.23891e-28 -500)
(-1.23042e-20 -3.83381e-27 -500)
(3.53519e-15 -1.5348e-27 -500)
(-3.89018e-12 -4.97216e-27 -500)
(3.98841e-12 4.86573e-15 -500)
(-8.537e-14 -1.10692e-22 -500)
(-1.10517e-14 -1.21044e-22 -500)
(1.48636e-24 -9.77688e-23 -500)
(1.33822e-28 -4.5145e-23 -500)
(-1.21551e-28 -2.69237e-23 -500)
(-4.17623e-24 -7.00606e-23 -500)
(1.75142e-13 -6.15204e-23 -500)
(1.46157e-12 -1.54672e-13 -500)
(-2.81293e-13 -1.20244e-13 -500)
(-6.10317e-14 5.51286e-13 -500)
(6.97148e-13 3.52038e-13 -500)
(3.54483e-20 -1.60247e-22 -500)
(1.02798e-23 -3.06248e-22 -500)
(1.53731e-28 -1.27786e-22 -500)
(-7.65564e-30 -2.94516e-22 -500)
(-1.48582e-24 9.64336e-21 -500)
(-1.23042e-20 -1.41606e-22 -500)
(3.53519e-15 -3.02834e-22 -500)
(-3.89018e-12 1.36046e-16 -500)
(3.95249e-12 -4.95772e-14 -500)
(-8.53559e-14 7.01051e-15 -500)
(-1.10517e-14 2.09998e-14 -500)
(8.90363e-15 9.94028e-14 -500)
(1.85031e-19 1.82039e-13 -500)
(-2.88248e-20 1.19947e-13 -500)
(-9.31348e-24 6.35979e-15 -500)
(1.59718e-14 1.18723e-14 -500)
(-8.02565e-13 -4.28496e-13 -500)
(-2.28491e-13 -1.06091e-12 -500)
(5.38334e-13 -1.29473e-13 -500)
(-4.8531e-13 6.19053e-14 -500)
(4.08038e-15 1.26429e-14 -500)
(-2.82176e-19 2.01819e-14 -500)
(1.44624e-20 1.95341e-14 -500)
(6.20877e-20 1.18181e-13 -500)
(-2.93678e-14 3.14919e-13 -500)
(-3.98845e-14 1.1136e-13 -500)
(3.59446e-15 1.10143e-14 -500)
(-3.88781e-12 3.29155e-15 -500)
(3.55865e-12 -1.2947e-12 -500)
(1.65046e-13 -1.48903e-12 -500)
(1.63361e-13 -1.0682e-12 -500)
(1.19932e-13 -1.0653e-12 -500)
(2.37786e-13 -7.18277e-13 -500)
(-1.48359e-13 2.84287e-13 -500)
(-9.4837e-14 -2.011e-12 -500)
(1.89159e-13 -2.42699e-13 -500)
(-6.72281e-13 9.98878e-14 -500)
(-2.85933e-13 -2.97549e-13 -500)
(6.4675e-13 -2.17764e-13 -500)
(1.1893e-13 -5.39855e-13 -500)
(4.35011e-16 -5.88128e-13 -500)
(6.37469e-14 -1.581e-12 -500)
(9.83925e-14 -8.68145e-13 -500)
(3.92996e-13 -1.40762e-12 -500)
(7.07172e-14 9.05036e-13 -500)
(-3.62163e-13 5.32632e-13 -500)
(-1.6327e-13 -7.92542e-13 -500)
(-3.7889e-12 3.3327e-13 -500)
(3.7074e-12 -5.7116e-13 -500)
(1.13358e-12 -4.97106e-13 -500)
(4.3087e-13 -1.41275e-12 -500)
(2.5556e-13 -2.14932e-12 -500)
(5.57525e-13 -1.01345e-12 -500)
(-7.26682e-13 -6.91343e-13 -500)
(4.0239e-13 -6.79258e-13 -500)
(7.28384e-13 -1.13668e-12 -500)
(-9.31302e-13 -4.33909e-14 -500)
(-3.30666e-13 -2.11395e-13 -500)
(5.59082e-14 -9.31684e-13 -500)
(8.08011e-14 -7.78124e-13 -500)
(-3.49731e-13 -3.211e-13 -500)
(-4.78194e-13 -4.63785e-13 -500)
(-2.11734e-13 -7.98387e-13 -500)
(7.08369e-13 -5.77568e-13 -500)
(1.30321e-12 -7.92195e-14 -500)
(-2.68105e-13 1.7596e-13 -500)
(-1.28787e-12 -1.92562e-13 -500)
(-4.55475e-12 5.82581e-13 -500)
(4.95991e-12 7.75358e-13 -500)
(2.08695e-13 8.36076e-13 -500)
(-1.57942e-12 8.04836e-13 -500)
(2.15022e-13 7.93482e-13 -500)
(1.06673e-12 4.91211e-13 -500)
(3.56861e-13 3.80238e-13 -500)
(-2.93863e-13 1.18373e-12 -500)
(4.46853e-13 1.12475e-13 -500)
(1.65464e-13 3.59702e-13 -500)
(-1.20298e-12 3.5496e-13 -500)
(-1.76238e-13 7.88424e-14 -500)
(1.40795e-12 4.95886e-13 -500)
(6.39959e-14 2.90356e-13 -500)
(-5.80101e-13 9.85725e-13 -500)
(1.15232e-13 8.70516e-13 -500)
(7.31637e-13 1.18804e-12 -500)
(6.58517e-13 3.78963e-13 -500)
(-1.87347e-13 2.10378e-13 -500)
(-7.40508e-13 3.26648e-13 -500)
(-5.55047e-12 3.96118e-13 -500)
(4.58314e-12 -2.22566e-13 -500)
(-7.49393e-13 3.43616e-13 -500)
(-5.8143e-13 1.97759e-12 -500)
(1.13143e-13 4.21845e-12 -500)
(4.94175e-13 1.40961e-12 -500)
(7.79047e-14 7.24877e-13 -500)
(-3.4173e-13 7.25739e-13 -500)
(5.04491e-14 2.10889e-12 -500)
(-1.63116e-13 -9.00351e-14 -500)
(-3.03465e-13 -3.89776e-13 -500)
(3.70866e-13 4.11925e-13 -500)
(2.60821e-13 7.89673e-13 -500)
(6.21177e-14 -1.62314e-13 -500)
(-2.96987e-13 7.95774e-13 -500)
(1.37186e-13 2.10004e-12 -500)
(4.81315e-13 4.7237e-13 -500)
(-2.25679e-14 5.14894e-15 -500)
(-2.06269e-13 -2.02512e-14 -500)
(3.17785e-13 5.96295e-13 -500)
(-4.21503e-12 -1.70749e-12 -500)
(3.98841e-12 -6.06145e-16 -500)
(-8.537e-14 1.25306e-20 -500)
(-1.10517e-14 -7.6525e-18 -500)
(1.13878e-23 2.10074e-17 -500)
(-8.55471e-25 -2.32987e-21 -500)
(-8.72821e-24 1.19448e-19 -500)
(7.92573e-25 -3.17172e-21 -500)
(7.44519e-15 1.66006e-20 -500)
(-2.46151e-12 1.54876e-13 -500)
(-1.08831e-12 3.36246e-13 -500)
(1.44074e-12 1.5989e-13 -500)
(1.10573e-12 -4.03037e-14 -500)
(3.53236e-20 -1.33794e-15 -500)
(4.48411e-24 1.33398e-20 -500)
(-6.53742e-24 -9.03092e-22 -500)
(2.27116e-24 -4.04323e-15 -500)
(2.68477e-24 -5.12817e-18 -500)
(-1.23057e-20 9.79247e-20 -500)
(3.53519e-15 2.85709e-20 -500)
(-3.89018e-12 8.2393e-16 -500)
(3.98841e-12 1.01192e-22 -500)
(-8.537e-14 1.56276e-22 -500)
(-1.10517e-14 1.45013e-22 -500)
(1.48658e-24 2.42496e-22 -500)
(7.08249e-29 -1.2084e-22 -500)
(-1.06986e-28 1.77425e-22 -500)
(-2.35762e-24 1.85918e-22 -500)
(4.70121e-15 1.12722e-22 -500)
(4.74164e-13 2.32379e-13 -500)
(-2.4743e-13 7.00535e-13 -500)
(5.02889e-13 2.64016e-13 -500)
(2.75648e-13 -9.14968e-14 -500)
(-2.47424e-16 1.27446e-22 -500)
(9.46723e-25 1.13506e-22 -500)
(-7.51267e-29 1.12487e-22 -500)
(-4.81015e-29 1.0454e-22 -500)
(-1.48582e-24 1.77814e-22 -500)
(-1.23042e-20 1.29252e-22 -500)
(3.53519e-15 9.43134e-23 -500)
(-3.89018e-12 1.45971e-22 -500)
(3.98841e-12 6.63517e-27 -500)
(-8.537e-14 7.4644e-28 -500)
(-1.10517e-14 4.90344e-27 -500)
(1.48643e-24 5.86574e-27 -500)
(4.85908e-29 -5.9883e-29 -500)
(-1.53085e-28 5.03734e-27 -500)
(-8.18151e-24 -6.06093e-28 -500)
(7.16935e-14 -2.20872e-22 -500)
(-7.65141e-13 -3.3231e-13 -500)
(-7.81761e-13 -6.98642e-13 -500)
(9.12062e-13 -5.05323e-13 -500)
(1.69517e-12 -5.62588e-14 -500)
(-3.8746e-15 -2.877e-23 -500)
(3.76965e-24 8.11087e-28 -500)
(1.96224e-29 8.82316e-29 -500)
(-4.85196e-29 2.3953e-27 -500)
(-1.48583e-24 9.96215e-28 -500)
(-1.23042e-20 4.26491e-27 -500)
(3.53519e-15 1.736e-27 -500)
(-3.89018e-12 4.08276e-27 -500)
(3.98841e-12 -9.30313e-29 -500)
(-8.537e-14 -3.52039e-29 -500)
(-1.10517e-14 -3.35385e-27 -500)
(1.48643e-24 -3.35241e-27 -500)
(4.85826e-29 -3.35954e-27 -500)
(-1.53422e-28 -3.35321e-27 -500)
(-1.21012e-23 -3.34894e-27 -500)
(1.45619e-14 -7.90038e-24 -500)
(-2.11851e-12 2.69522e-15 -500)
(-9.34492e-13 2.19815e-13 -500)
(1.23985e-12 6.73059e-14 -500)
(1.26289e-12 -4.7517e-14 -500)
(-1.21931e-14 -2.104e-23 -500)
(3.47908e-24 -2.81396e-27 -500)
(6.09592e-31 -3.35471e-27 -500)
(-4.85309e-29 -3.35461e-27 -500)
(-1.48583e-24 -3.35426e-27 -500)
(-1.23042e-20 -3.35455e-27 -500)
(3.53519e-15 -3.62898e-29 -500)
(-3.89018e-12 -9.2157e-29 -500)
(3.98841e-12 2.84826e-23 -500)
(-8.537e-14 -6.95223e-23 -500)
(-1.10517e-14 -6.95654e-23 -500)
(1.48643e-24 -6.95654e-23 -500)
(4.86002e-29 -6.95654e-23 -500)
(-1.52784e-28 -6.95654e-23 -500)
(-6.47723e-24 -6.95649e-23 -500)
(1.02935e-14 9.74921e-23 -500)
(-7.53637e-13 2.41853e-15 -500)
(-9.23361e-13 3.60415e-13 -500)
(7.6401e-13 -7.04008e-14 -500)
(1.8719e-12 -4.37729e-14 -500)
(-4.17499e-15 -1.68401e-22 -500)
(8.72068e-25 -6.95654e-23 -500)
(8.293e-32 -6.95654e-23 -500)
(-4.85439e-29 -6.95654e-23 -500)
(-1.48583e-24 -6.95654e-23 -500)
(-1.23042e-20 -6.95654e-23 -500)
(3.53519e-15 -6.95223e-23 -500)
(-3.89018e-12 2.84826e-23 -500)
(3.98841e-12 -1.15557e-21 -500)
(-8.537e-14 6.91515e-15 -500)
(-1.10517e-14 -9.00941e-20 -500)
(1.48642e-24 -9.00942e-20 -500)
(4.85435e-29 -9.00942e-20 -500)
(-8.69723e-29 -9.00942e-20 -500)
(-5.48975e-24 -9.00942e-20 -500)
(1.91536e-14 -9.03142e-20 -500)
(-1.78485e-12 -2.24174e-13 -500)
(-1.08989e-12 -5.21439e-13 -500)
(1.13072e-12 -4.71761e-13 -500)
(1.31744e-12 2.48045e-14 -500)
(-1.1511e-16 -9.02032e-20 -500)
(7.27064e-24 -9.00942e-20 -500)
(1.3412e-30 -9.00942e-20 -500)
(-4.84576e-29 -9.00942e-20 -500)
(-1.48583e-24 -9.00942e-20 -500)
(-1.22885e-20 -9.00941e-20 -500)
(3.53519e-15 7.06975e-15 -500)
(-3.89018e-12 -1.15557e-21 -500)
(3.99592e-12 -3.98382e-14 -500)
(-8.53724e-14 3.61065e-15 -500)
(-1.64202e-14 3.53516e-15 -500)
(1.48719e-24 3.53516e-15 -500)
(2.34496e-31 3.53516e-15 -500)
(-8.23701e-29 3.53516e-15 -500)
(-1.08364e-23 3.53516e-15 -500)
(-1.6589e-14 2.14882e-14 -500)
(-1.79461e-12 1.79236e-13 -500)
(-1.08279e-12 -9.00503e-14 -500)
(5.55882e-13 -8.6736e-13 -500)
(1.7815e-12 -1.85147e-13 -500)
(-7.40659e-17 3.53516e-15 -500)
(5.41855e-24 3.53516e-15 -500)
(8.6679e-29 3.53516e-15 -500)
(-1.77643e-31 3.53516e-15 -500)
(-1.48719e-24 3.53516e-15 -500)
(7.06975e-15 3.53516e-15 -500)
(3.6137e-15 3.61065e-15 -500)
(-3.89798e-12 -3.97049e-14 -500)
(3.94753e-12 -3.85073e-12 -500)
(-5.09441e-14 -3.89766e-12 -500)
(-1.40251e-14 -3.89018e-12 -500)
(1.81174e-24 -3.89018e-12 -500)
(2.28289e-29 -3.89018e-12 -500)
(-9.01646e-31 -3.89018e-12 -500)
(2.12993e-16 -3.89018e-12 -500)
(2.19207e-13 -3.87396e-12 -500)
(5.55506e-13 -3.73871e-12 -500)
(-7.01733e-13 -4.42131e-12 -500)
(2.7936e-13 -4.13963e-12 -500)
(1.35646e-12 -3.72903e-12 -500)
(3.5556e-17 -3.89018e-12 -500)
(7.21076e-24 -3.89018e-12 -500)
(6.4534e-29 -3.89018e-12 -500)
(-2.27728e-29 -3.89018e-12 -500)
(-1.8117e-24 -3.89018e-12 -500)
(-1.51979e-21 -3.89018e-12 -500)
(-3.97049e-14 -3.89798e-12 -500)
(-3.85083e-12 -3.85083e-12 -500)
(8.28485e-12 8.28485e-12 -500)
(3.91638e-14 8.28326e-12 -500)
(5.73468e-24 8.28359e-12 -500)
(1.80955e-24 8.28359e-12 -500)
(5.37168e-31 8.28359e-12 -500)
(-1.04069e-30 8.28359e-12 -500)
(7.34293e-15 8.28359e-12 -500)
(-2.00053e-15 8.273e-12 -500)
(9.91382e-14 7.35327e-12 -500)
(-1.26916e-12 5.6348e-12 -500)
(3.85683e-14 4.30736e-12 -500)
(2.0684e-12 5.36791e-12 -500)
(-3.18102e-18 8.28359e-12 -500)
(3.76882e-24 8.28359e-12 -500)
(5.79405e-31 8.28359e-12 -500)
(-4.97742e-31 8.28359e-12 -500)
(-1.80955e-24 8.28359e-12 -500)
(-5.73468e-24 8.28359e-12 -500)
(-5.11777e-15 8.28324e-12 -500)
(-8.31626e-12 8.28485e-12 -500)
(8.28326e-12 3.93427e-14 -500)
(4.44008e-14 4.44008e-14 -500)
(3.94087e-23 4.44008e-14 -500)
(1.48525e-24 4.44008e-14 -500)
(1.93923e-31 4.44008e-14 -500)
(-1.54938e-31 4.44008e-14 -500)
(-1.00765e-24 4.44008e-14 -500)
(-4.49997e-15 4.44008e-14 -500)
(-1.05902e-12 -2.94461e-14 -500)
(-6.80393e-13 3.76235e-13 -500)
(5.44061e-13 1.176e-12 -500)
(1.23164e-12 1.63646e-12 -500)
(1.60712e-22 4.44008e-14 -500)
(8.13093e-24 4.44008e-14 -500)
(1.32667e-30 4.44008e-14 -500)
(-9.23135e-32 4.44008e-14 -500)
(-1.48525e-24 4.44008e-14 -500)
(-3.94087e-23 4.44008e-14 -500)
(-9.91152e-15 4.44008e-14 -500)
(-8.31475e-12 3.93427e-14 -500)
(8.28359e-12 -3.58628e-22 -500)
(4.44008e-14 9.54224e-22 -500)
(3.94094e-23 9.54252e-22 -500)
(1.48525e-24 9.54252e-22 -500)
(1.72997e-31 9.54252e-22 -500)
(-8.83485e-31 9.54252e-22 -500)
(-7.59617e-24 9.54252e-22 -500)
(1.60356e-16 8.60686e-22 -500)
(-1.51956e-12 -1.19053e-13 -500)
(-1.02937e-12 -1.41332e-13 -500)
(7.55065e-13 -7.1489e-13 -500)
(1.70321e-12 -6.19672e-14 -500)
(-3.03494e-19 9.95827e-22 -500)
(3.32667e-24 9.54252e-22 -500)
(6.20763e-31 9.54252e-22 -500)
(-1.04725e-31 9.54252e-22 -500)
(-1.48524e-24 9.54252e-22 -500)
(-3.94094e-23 9.54252e-22 -500)
(-9.91152e-15 9.54224e-22 -500)
(-8.31512e-12 -3.58628e-22 -500)
(8.28359e-12 -2.84868e-23 -500)
(4.44008e-14 6.95255e-23 -500)
(3.94094e-23 6.95256e-23 -500)
(1.48525e-24 6.95256e-23 -500)
(1.70001e-31 6.95256e-23 -500)
(-9.84051e-31 6.95256e-23 -500)
(-8.14237e-24 6.95255e-23 -500)
(-2.28328e-14 -2.5524e-15 -500)
(-1.11948e-12 8.19781e-14 -500)
(-1.36666e-12 -4.62632e-15 -500)
(6.65598e-13 2.89278e-13 -500)
(2.38903e-12 3.18471e-13 -500)
(1.85166e-22 5.65735e-23 -500)
(9.22872e-24 6.95255e-23 -500)
(1.52596e-30 6.95256e-23 -500)
(-8.89268e-32 6.95256e-23 -500)
(-1.48524e-24 6.95256e-23 -500)
(-3.94094e-23 6.95256e-23 -500)
(-9.91152e-15 6.95255e-23 -500)
(-8.31512e-12 -2.84868e-23 -500)
(8.28359e-12 -2.12139e-29 -500)
(4.44008e-14 4.14669e-29 -500)
(3.94094e-23 4.18645e-29 -500)
(1.48525e-24 4.15333e-29 -500)
(1.72792e-31 4.32129e-29 -500)
(-9.54812e-31 4.20017e-29 -500)
(-8.94421e-24 1.99496e-29 -500)
(-2.76585e-14 -8.83199e-23 -500)
(-6.09474e-13 1.99442e-13 -500)
(-7.63048e-13 3.05803e-13 -500)
(6.34053e-13 7.85568e-13 -500)
(4.74255e-13 2.35552e-13 -500)
(2.32633e-15 1.57317e-22 -500)
(5.08658e-24 9.75543e-29 -500)
(8.74678e-31 4.29464e-29 -500)
(-1.00841e-31 3.98448e-29 -500)
(-1.48524e-24 4.26516e-29 -500)
(-3.94094e-23 4.176e-29 -500)
(-9.91152e-15 3.81464e-29 -500)
(-8.31512e-12 -2.04509e-29 -500)
(8.28359e-12 -1.08531e-28 -500)
(4.44008e-14 -7.91741e-29 -500)
(3.94094e-23 -6.54236e-29 -500)
(1.48525e-24 -7.76647e-29 -500)
(1.66904e-31 -2.95934e-29 -500)
(-1.2335e-30 -6.03708e-29 -500)
(-1.0392e-23 2.04098e-29 -500)
(-1.96086e-14 1.48519e-22 -500)
(-8.06779e-13 -5.75675e-14 -500)
(-5.85975e-13 3.19913e-13 -500)
(5.16992e-13 3.26212e-13 -500)
(1.06978e-12 -3.16673e-14 -500)
(-1.7069e-21 -5.86014e-23 -500)
(3.21661e-24 -1.77764e-28 -500)
(4.72568e-31 -4.91943e-29 -500)
(-1.04107e-31 -1.24507e-28 -500)