/*--------------------------------*- C++ -*----------------------------------*\
| =========                 |                                                 |
| \\      /  F ield         | OpenFOAM: The Open Source CFD Toolbox           |
|  \\    /   O peration     | Version:  2412                                  |
|   \\  /    A nd           | Website:  www.openfoam.com                      |
|    \\/     M anipulation  |                                                 |
\*---------------------------------------------------------------------------*/
FoamFile
{
    version     2.0;
    format      ascii;
    arch        "LSB;label=32;scalar=64";
    class       volVectorField;
    location    "0.003";
    object      U;
}
// * * * * * * * * * * * * * * * * * * * * * * * * * * * * * * * * * * * * * //

dimensions      [0 1 -1 0 0 0 0];

internalField   nonuniform List<vector> 
124215
(
(1.36204e-12 1.36204e-12 -500)
(6.68786e-15 1.3686e-12 -500)
(1.75365e-22 1.3686e-12 -500)
(8.8585e-25 1.3686e-12 -500)
(2.49598e-30 1.3686e-12 -500)
(-6.0554e-30 1.3686e-12 -500)
(-1.6378e-24 1.3686e-12 -500)
(-4.7135e-16 1.36853e-12 -500)
(-5.34327e-15 1.35493e-12 -500)
(-1.96171e-13 1.24395e-12 -500)
(1.15017e-14 1.13398e-12 -500)
(2.11723e-13 1.3076e-12 -500)
(3.83004e-21 1.3686e-12 -500)
(1.45126e-24 1.3686e-12 -500)
(1.80312e-29 1.3686e-12 -500)
(-2.45441e-30 1.3686e-12 -500)
(-8.85845e-25 1.3686e-12 -500)
(-1.75365e-22 1.3686e-12 -500)
(-4.96082e-15 1.3686e-12 -500)
(-1.36372e-12 1.36204e-12 -500)
(1.3686e-12 6.69493e-15 -500)
(8.86296e-17 8.86126e-17 -500)
(6.24632e-24 8.86215e-17 -500)
(1.43313e-25 8.86215e-17 -500)
(2.05011e-32 8.86215e-17 -500)
(-1.09599e-29 8.86215e-17 -500)
(-1.17169e-24 8.86215e-17 -500)
(8.89816e-16 8.86215e-17 -500)
(-9.69057e-14 1.56693e-14 -500)
(-1.39312e-13 8.85596e-14 -500)
(1.07356e-13 6.40841e-14 -500)
(1.57444e-13 5.17129e-14 -500)
(2.37776e-23 8.86215e-17 -500)
(9.50093e-25 8.86215e-17 -500)
(1.46498e-31 8.86215e-17 -500)
(-1.34379e-32 8.86215e-17 -500)
(-1.43313e-25 8.86215e-17 -500)
(-6.24645e-24 8.86215e-17 -500)
(1.99347e-15 8.86126e-17 -500)
(-1.37072e-12 6.69493e-15 -500)
(1.3686e-12 5.15203e-22 -500)
(8.86307e-17 1.67865e-22 -500)
(1.28776e-21 9.37259e-21 -500)
(1.43439e-25 9.3726e-21 -500)
(5.08156e-30 9.3726e-21 -500)
(-5.4462e-30 9.3726e-21 -500)
(-3.72587e-26 9.3726e-21 -500)
(5.28715e-15 9.37979e-21 -500)
(8.05467e-14 7.92933e-15 -500)
(-1.49347e-13 5.82576e-14 -500)
(-5.65796e-14 1.42575e-13 -500)
(1.74145e-13 8.8452e-15 -500)
(1.71694e-22 9.37163e-21 -500)
(4.71671e-25 9.3726e-21 -500)
(2.39051e-30 9.3726e-21 -500)
(-5.07204e-30 9.3726e-21 -500)
(-1.43376e-25 9.3726e-21 -500)
(-1.28776e-21 9.37259e-21 -500)
(1.99347e-15 1.67866e-22 -500)
(-1.37072e-12 5.15203e-22 -500)
(1.3686e-12 1.92307e-23 -500)
(8.86307e-17 3.88246e-24 -500)
(1.28776e-21 3.88759e-24 -500)
(1.43439e-25 3.88759e-24 -500)
(5.07786e-30 3.88759e-24 -500)
(-3.64334e-30 3.88759e-24 -500)
(-7.86103e-25 3.88758e-24 -500)
(2.48559e-16 -8.04612e-23 -500)
(-1.71683e-14 -3.42627e-14 -500)
(-3.62e-15 -4.37362e-13 -500)
(5.1578e-14 1.14996e-13 -500)
(-1.42196e-14 1.0565e-14 -500)
(1.96566e-22 -2.80526e-25 -500)
(1.65099e-24 3.8876e-24 -500)
(2.59736e-30 3.88759e-24 -500)
(-5.06766e-30 3.88759e-24 -500)
(-1.43376e-25 3.88759e-24 -500)
(-1.28776e-21 3.88759e-24 -500)
(1.99347e-15 3.88245e-24 -500)
(-1.37072e-12 1.92307e-23 -500)
(1.3686e-12 2.47977e-29 -500)
(8.86307e-17 5.05587e-30 -500)
(1.28776e-21 3.47245e-28 -500)
(1.43439e-25 3.46732e-28 -500)
(5.06738e-30 3.47172e-28 -500)
(-9.05827e-30 3.46745e-28 -500)
(-3.8807e-24 1.41368e-28 -500)
(-1.58652e-14 -2.59225e-23 -500)
(-4.112e-13 -3.69189e-14 -500)
(-4.60379e-14 -3.78171e-13 -500)
(3.97113e-13 -1.53052e-13 -500)
(3.65467e-14 -6.24445e-15 -500)
(-7.5282e-19 2.17657e-23 -500)
(1.04058e-24 3.32321e-28 -500)
(1.71317e-31 3.46473e-28 -500)
(-5.06963e-30 3.46864e-28 -500)
(-1.43376e-25 3.47146e-28 -500)
(-1.28776e-21 3.46824e-28 -500)
(1.99347e-15 4.3923e-30 -500)
(-1.37072e-12 2.49522e-29 -500)
(1.3686e-12 -5.34351e-28 -500)
(8.86307e-17 7.1337e-28 -500)
(1.28776e-21 -1.22998e-28 -500)
(1.43439e-25 -5.43595e-28 -500)
(5.07429e-30 -3.77591e-28 -500)
(-1.37292e-29 -3.05096e-28 -500)
(-1.74593e-24 3.47002e-29 -500)
(-1.95117e-14 7.67831e-23 -500)
(-4.26483e-13 2.82862e-15 -500)
(-1.41152e-13 5.06623e-14 -500)
(4.14642e-13 -1.86513e-13 -500)
(1.36239e-13 -1.66901e-14 -500)
(4.88273e-22 -2.15377e-23 -500)
(1.51917e-24 -8.29279e-28 -500)
(6.13597e-30 -5.81642e-28 -500)
(-5.065e-30 -6.1278e-28 -500)
(-1.43376e-25 -7.64162e-29 -500)
(-1.28776e-21 -3.3196e-28 -500)
(1.99347e-15 -1.58251e-28 -500)
(-1.37072e-12 -5.30317e-28 -500)
(1.3686e-12 -5.23472e-23 -500)
(8.86307e-17 8.22853e-24 -500)
(1.28776e-21 -1.83918e-23 -500)
(1.43431e-25 -3.95906e-23 -500)
(1.38935e-29 -1.97651e-23 -500)
(-1.27142e-29 -3.72997e-23 -500)
(-1.06113e-24 -5.10105e-24 -500)
(-1.2727e-14 -2.87334e-24 -500)
(-3.54376e-13 1.4314e-14 -500)
(-2.32396e-13 1.33069e-13 -500)
(3.29997e-13 -8.17867e-14 -500)
(2.53106e-13 -7.28851e-15 -500)
(3.07185e-21 -3.54658e-24 -500)
(1.32157e-24 -8.82682e-23 -500)
(7.0402e-30 -5.30966e-23 -500)
(-7.2516e-31 -4.41366e-23 -500)
(-1.43376e-25 -1.96187e-23 -500)
(-1.28776e-21 -3.20387e-23 -500)
(1.99347e-15 -2.65054e-23 -500)
(-1.37072e-12 -4.55427e-23 -500)
(1.3686e-12 2.38404e-16 -500)
(8.86322e-17 -1.0763e-17 -500)
(2.04701e-21 5.30252e-16 -500)
(-4.31907e-23 3.28425e-16 -500)
(-3.09282e-16 -7.92049e-15 -500)
(-4.58795e-16 -5.50884e-15 -500)
(2.78887e-19 2.54393e-16 -500)
(2.22099e-16 1.00724e-15 -500)
(-2.47899e-13 1.13812e-14 -500)
(-2.69628e-13 1.35853e-13 -500)
(2.67596e-13 3.40527e-14 -500)
(2.54042e-13 -4.04666e-16 -500)
(1.13739e-21 3.49052e-16 -500)
(-8.10949e-17 -5.34019e-15 -500)
(1.44037e-21 -8.82126e-16 -500)
(-7.63205e-17 -5.57971e-15 -500)
(2.78027e-16 -3.14349e-15 -500)
(-2.0093e-21 3.9423e-16 -500)
(1.73664e-15 2.0123e-15 -500)
(-1.37072e-12 2.13719e-15 -500)
(1.37052e-12 -1.80221e-14 -500)
(7.63327e-15 1.15507e-13 -500)
(-1.09413e-14 -3.96228e-14 -500)
(-1.30321e-14 -3.26831e-14 -500)
(-1.05469e-14 -2.25028e-13 -500)
(-1.55412e-14 -1.43282e-13 -500)
(7.00001e-15 -4.14352e-13 -500)
(1.00952e-14 -6.68049e-14 -500)
(-2.45764e-13 -2.62679e-13 -500)
(-1.82315e-13 5.8797e-14 -500)
(2.19967e-13 2.8747e-13 -500)
(1.98429e-13 -3.19818e-13 -500)
(-1.3377e-14 6.91556e-14 -500)
(-2.00434e-14 -5.06255e-13 -500)
(1.26433e-14 -3.21796e-13 -500)
(-1.00161e-14 -3.9548e-13 -500)
(2.95921e-14 -4.71294e-13 -500)
(2.39036e-14 -2.90278e-14 -500)
(-9.93297e-15 -6.92592e-14 -500)
(-1.37318e-12 -2.26668e-13 -500)
(1.32528e-12 -3.22717e-13 -500)
(6.14282e-14 -1.56788e-13 -500)
(-8.77806e-14 -1.41627e-14 -500)
(-1.97033e-13 -4.92087e-14 -500)
(-1.08185e-13 -1.15791e-13 -500)
(-1.34279e-13 -3.62809e-13 -500)
(4.67906e-14 -1.06959e-13 -500)
(9.96653e-14 -6.78487e-14 -500)
(-5.84529e-14 -1.1134e-13 -500)
(3.46609e-13 3.78517e-13 -500)
(-1.75668e-13 -3.30311e-15 -500)
(-4.96245e-14 -2.82374e-13 -500)
(-1.28644e-13 -6.60951e-14 -500)
(-3.52532e-13 -1.61434e-13 -500)
(6.83908e-14 2.27347e-13 -500)
(-1.24176e-13 1.47601e-14 -500)
(2.89393e-13 -2.87861e-13 -500)
(3.68191e-13 -7.81594e-14 -500)
(-1.47806e-13 -1.35477e-13 -500)
(-1.24758e-12 -2.46247e-13 -500)
(1.02631e-12 1.86869e-14 -500)
(3.53374e-13 -3.41632e-14 -500)
(9.50914e-14 5.29769e-14 -500)
(-9.59917e-14 7.14936e-14 -500)
(-3.36756e-13 2.20365e-13 -500)
(3.65767e-14 1.63333e-13 -500)
(2.78104e-13 3.58774e-13 -500)
(-5.56112e-15 1.06867e-13 -500)
(1.93871e-13 2.9185e-13 -500)
(-1.21726e-13 -1.20498e-13 -500)
(-3.8172e-13 -1.47101e-13 -500)
(2.12164e-13 2.99281e-13 -500)
(5.4313e-14 8.95626e-15 -500)
(3.15592e-13 4.26641e-13 -500)
(1.96083e-13 3.3825e-13 -500)
(-5.76641e-13 3.70393e-13 -500)
(-1.79907e-14 4.6368e-13 -500)
(1.5528e-13 9.16578e-14 -500)
(-2.35061e-13 8.61525e-14 -500)
(-1.10386e-12 2.06162e-13 -500)
(1.32115e-12 3.62561e-13 -500)
(5.43754e-14 1.10525e-13 -500)
(2.65686e-15 -3.28566e-14 -500)
(-5.73773e-15 -1.27416e-14 -500)
(-3.26514e-14 1.17395e-13 -500)
(-3.52919e-16 3.95417e-13 -500)
(1.26427e-14 9.51141e-14 -500)
(1.21674e-15 4.99829e-14 -500)
(-2.31956e-13 7.92988e-14 -500)
(-1.10394e-13 -2.11192e-13 -500)
(1.81235e-13 5.77891e-14 -500)
(1.15129e-13 2.70752e-13 -500)
(7.62736e-15 3.35453e-14 -500)
(3.3397e-14 2.38792e-13 -500)
(1.83195e-14 -3.41149e-13 -500)
(-5.59914e-14 -6.11492e-16 -500)
(-1.00642e-14 2.9176e-13 -500)
(2.51068e-14 5.25601e-14 -500)
(-9.58103e-15 1.04145e-13 -500)
(-1.36589e-12 2.83816e-13 -500)
(1.3686e-12 2.07612e-20 -500)
(8.86307e-17 1.97019e-21 -500)
(1.28683e-21 1.57433e-20 -500)
(3.92219e-25 2.05838e-20 -500)
(1.47667e-24 4.12914e-21 -500)
(1.09361e-24 1.52978e-20 -500)
(-1.96912e-24 2.16575e-21 -500)
(8.70916e-16 5.35771e-22 -500)
(-6.77941e-14 -6.05043e-15 -500)
(-1.76871e-13 -1.0402e-13 -500)
(1.11157e-13 -4.99743e-14 -500)
(1.72322e-13 7.86806e-15 -500)
(3.71683e-21 2.62781e-21 -500)
(9.53541e-25 5.44879e-21 -500)
(-3.12686e-25 -5.33049e-16 -500)
(4.61971e-25 -2.48461e-17 -500)
(1.39694e-24 1.03644e-20 -500)
(-1.28746e-21 1.31726e-20 -500)
(1.99347e-15 3.70807e-21 -500)
(-1.37072e-12 -7.65296e-18 -500)
(1.3686e-12 7.04215e-23 -500)
(8.86307e-17 1.04941e-23 -500)
(1.28776e-21 4.14009e-23 -500)
(1.43455e-25 3.6274e-23 -500)
(1.71343e-29 3.04237e-23 -500)
(-1.08677e-29 8.09463e-24 -500)
(-3.63264e-25 1.33532e-23 -500)
(3.25796e-16 2.42106e-23 -500)
(-3.96281e-13 -1.72142e-14 -500)
(-1.65405e-13 -1.77987e-13 -500)
(3.83186e-13 1.07336e-13 -500)
(1.27327e-13 7.68657e-15 -500)
(-2.68834e-20 2.8005e-23 -500)
(1.21578e-24 3.34823e-23 -500)
(1.83232e-30 2.28691e-23 -500)
(-4.98135e-30 3.46979e-23 -500)
(-1.43375e-25 2.6784e-23 -500)
(-1.28776e-21 9.25406e-24 -500)
(1.99347e-15 9.79394e-24 -500)
(-1.37072e-12 6.37058e-23 -500)
(1.3686e-12 7.49166e-28 -500)
(8.86307e-17 -1.65125e-30 -500)
(1.28776e-21 5.25045e-28 -500)
(1.43439e-25 6.15114e-28 -500)
(5.08391e-30 2.35743e-29 -500)
(-1.60394e-29 4.69652e-28 -500)
(-1.3165e-24 -1.47109e-28 -500)
(-9.09322e-15 -2.76536e-23 -500)
(-2.72548e-13 2.47922e-14 -500)
(-5.64715e-14 2.20314e-13 -500)
(2.82708e-13 1.56832e-13 -500)
(3.49817e-14 1.58121e-14 -500)
(-5.70952e-20 1.59565e-23 -500)
(1.5805e-24 1.07829e-28 -500)
(2.23088e-30 -1.85728e-28 -500)
(-5.06601e-30 2.18265e-28 -500)
(-1.43376e-25 1.09341e-28 -500)
(-1.28776e-21 3.92142e-28 -500)
(1.99347e-15 1.05448e-28 -500)
(-1.37072e-12 4.81069e-28 -500)
(1.3686e-12 -2.29033e-29 -500)
(8.86307e-17 -4.34363e-30 -500)
(1.28776e-21 -3.46403e-28 -500)
(1.43439e-25 -3.46539e-28 -500)
(5.07593e-30 -3.46574e-28 -500)
(-1.60548e-29 -3.4704e-28 -500)
(-1.54249e-24 -3.42895e-28 -500)
(-1.09191e-15 8.16903e-24 -500)
(-1.20529e-13 1.84775e-14 -500)
(6.53181e-15 2.73445e-13 -500)
(1.48294e-13 2.04438e-13 -500)
(-2.68277e-14 2.62493e-14 -500)
(-8.82543e-19 1.16175e-23 -500)
(4.78847e-25 -2.85618e-28 -500)
(7.07881e-32 -3.46712e-28 -500)
(-5.07144e-30 -3.46528e-28 -500)
(-1.43376e-25 -3.46744e-28 -500)
(-1.28776e-21 -3.47157e-28 -500)
(1.99347e-15 -4.33194e-30 -500)
(-1.37072e-12 -2.30072e-29 -500)
(1.3686e-12 -1.92306e-23 -500)
(8.86307e-17 -3.88244e-24 -500)
(1.28776e-21 -3.88689e-24 -500)
(1.43439e-25 -3.88689e-24 -500)
(5.0785e-30 -3.88689e-24 -500)
(-1.59632e-29 -3.88689e-24 -500)
(-6.63234e-25 -3.88684e-24 -500)
(3.79495e-16 2.10389e-23 -500)
(1.9327e-14 4.41745e-15 -500)
(1.73068e-13 8.30058e-14 -500)
(1.47189e-14 -1.37555e-13 -500)
(-2.26955e-13 -6.78716e-15 -500)
(2.0136e-15 -4.39972e-23 -500)
(1.17792e-24 -3.8869e-24 -500)
(1.68385e-31 -3.88689e-24 -500)
(-5.07001e-30 -3.88689e-24 -500)
(-1.43376e-25 -3.88689e-24 -500)
(-1.28776e-21 -3.88689e-24 -500)
(1.99347e-15 -3.88244e-24 -500)
(-1.37072e-12 -1.92306e-23 -500)
(1.3686e-12 -5.15204e-22 -500)
(8.86307e-17 -1.67867e-22 -500)
(1.28615e-21 -9.37259e-21 -500)
(1.43439e-25 -9.3726e-21 -500)
(5.07197e-30 -9.3726e-21 -500)
(-9.09095e-30 -9.3726e-21 -500)
(-6.85745e-25 -9.3726e-21 -500)
(6.54505e-17 -9.37343e-21 -500)
(-4.11668e-15 4.42034e-15 -500)
(-1.62796e-13 9.95117e-14 -500)
(4.76774e-14 -3.35088e-13 -500)
(1.17622e-13 -2.55456e-14 -500)
(4.01821e-23 -9.36405e-21 -500)
(1.92834e-24 -9.3726e-21 -500)
(3.3709e-31 -9.3726e-21 -500)
(-5.05946e-30 -9.3726e-21 -500)
(-1.43376e-25 -9.3726e-21 -500)
(-1.28615e-21 -9.37259e-21 -500)
(1.99347e-15 -1.67868e-22 -500)
(-1.37072e-12 -5.15204e-22 -500)
(1.3686e-12 -4.96789e-15 -500)
(8.8454e-17 1.99349e-15 -500)
(6.77722e-24 1.99348e-15 -500)
(1.43503e-25 1.99348e-15 -500)
(2.39987e-32 1.99348e-15 -500)
(-8.69901e-30 1.99348e-15 -500)
(-1.571e-24 1.99348e-15 -500)
(4.50955e-16 1.99348e-15 -500)
(1.20836e-13 -1.64183e-14 -500)
(-1.69513e-13 -2.55067e-13 -500)
(-7.61096e-14 1.3231e-13 -500)
(1.85222e-13 9.20503e-15 -500)
(2.14255e-21 1.99348e-15 -500)
(1.31953e-24 1.99348e-15 -500)
(9.19036e-30 1.99348e-15 -500)
(-1.93578e-32 1.99348e-15 -500)
(-1.43503e-25 1.99348e-15 -500)
(-6.77735e-24 1.99348e-15 -500)
(1.99365e-15 1.99349e-15 -500)
(-1.37072e-12 -4.96789e-15 -500)
(1.36204e-12 -1.36372e-12 -500)
(6.69492e-15 -1.37072e-12 -500)
(1.75829e-22 -1.37072e-12 -500)
(8.90692e-25 -1.37072e-12 -500)
(2.5037e-30 -1.37072e-12 -500)
(-9.34859e-32 -1.37072e-12 -500)
(-8.81036e-25 -1.37072e-12 -500)
(-1.55353e-14 -1.37072e-12 -500)
(-3.77754e-13 -1.37359e-12 -500)
(8.88174e-14 -1.33464e-12 -500)
(3.28571e-13 -1.26695e-12 -500)
(-9.28884e-14 -1.36642e-12 -500)
(-3.2431e-15 -1.37072e-12 -500)
(8.34784e-25 -1.37072e-12 -500)
(6.73987e-30 -1.37072e-12 -500)
(-2.46242e-30 -1.37072e-12 -500)
(-8.90687e-25 -1.37072e-12 -500)
(-1.7583e-22 -1.37072e-12 -500)
(-4.96788e-15 -1.37072e-12 -500)
(-1.36372e-12 -1.36372e-12 -500)
(1.13182e-12 1.13182e-12 -500)
(-1.04885e-16 1.13079e-12 -500)
(6.49446e-22 1.13079e-12 -500)
(3.33507e-25 1.13079e-12 -500)
(9.6486e-30 1.13079e-12 -500)
(-2.42234e-29 1.13079e-12 -500)
(-4.93838e-25 1.13079e-12 -500)
(-8.81498e-15 1.12875e-12 -500)
(-2.20096e-13 1.05725e-12 -500)
(-1.31767e-13 6.61955e-13 -500)
(1.71121e-13 9.77206e-13 -500)
(1.37116e-13 1.12204e-12 -500)
(1.56414e-20 1.13079e-12 -500)
(8.6588e-25 1.13079e-12 -500)
(7.33178e-29 1.13079e-12 -500)
(-9.63775e-30 1.13079e-12 -500)
(-3.3349e-25 1.13079e-12 -500)
(-6.49446e-22 1.13079e-12 -500)
(-7.5627e-16 1.13079e-12 -500)
(-1.13095e-12 1.13182e-12 -500)
(1.13079e-12 -1.05231e-16 -500)
(3.29507e-16 3.29476e-16 -500)
(7.25973e-24 3.29514e-16 -500)
(2.73595e-25 3.29514e-16 -500)
(2.93067e-32 3.29514e-16 -500)
(-4.47057e-29 3.29514e-16 -500)
(-2.04583e-24 3.29514e-16 -500)
(-2.33846e-15 3.29514e-16 -500)
(-4.30197e-13 4.69005e-14 -500)
(-8.99258e-14 1.58206e-13 -500)
(3.44832e-13 1.50323e-13 -500)
(1.02208e-13 1.46112e-14 -500)
(7.46525e-24 3.29514e-16 -500)
(1.54556e-25 3.29514e-16 -500)
(1.03442e-32 3.29514e-16 -500)
(-2.25714e-32 3.29514e-16 -500)
(-2.73594e-25 3.29514e-16 -500)
(-7.25997e-24 3.29514e-16 -500)
(-1.19066e-15 3.29476e-16 -500)
(-1.1299e-12 -1.05231e-16 -500)
(1.13079e-12 5.83701e-22 -500)
(3.29512e-16 1.75779e-22 -500)
(5.27047e-21 3.84287e-20 -500)
(2.74112e-25 3.84287e-20 -500)
(2.08105e-29 3.84287e-20 -500)
(-6.13845e-29 3.84287e-20 -500)
(-1.89509e-24 3.84287e-20 -500)
(-3.01697e-17 3.85131e-20 -500)
(-4.98274e-14 1.13482e-14 -500)
(2.90377e-14 1.48754e-14 -500)
(8.6673e-14 4.52877e-14 -500)
(-5.29486e-14 1.04947e-14 -500)
(6.42243e-22 3.84304e-20 -500)
(-4.31635e-25 3.84287e-20 -500)
(9.51652e-30 3.84287e-20 -500)
(-2.08027e-29 3.84287e-20 -500)
(-2.73855e-25 3.84287e-20 -500)
(-5.27047e-21 3.84287e-20 -500)
(-1.19067e-15 1.75782e-22 -500)
(-1.1299e-12 5.83701e-22 -500)
(1.13079e-12 -5.2459e-24 -500)
(3.29512e-16 1.28062e-23 -500)
(5.27047e-21 1.28276e-23 -500)
(2.74112e-25 1.28276e-23 -500)
(2.08169e-29 1.28276e-23 -500)
(-1.45545e-29 1.28276e-23 -500)
(1.35245e-25 1.28278e-23 -500)
(1.42069e-15 4.14491e-23 -500)
(-3.96293e-13 -1.9401e-14 -500)
(-9.9382e-14 -2.7358e-13 -500)
(4.05662e-13 -3.63107e-13 -500)
(4.52365e-14 -3.49609e-14 -500)
(6.58504e-22 -4.27821e-24 -500)
(4.89898e-25 1.28276e-23 -500)
(9.6416e-30 1.28276e-23 -500)
(-2.08006e-29 1.28276e-23 -500)
(-2.73855e-25 1.28276e-23 -500)
(-5.27047e-21 1.28276e-23 -500)
(-1.19067e-15 1.28062e-23 -500)
(-1.1299e-12 -5.2459e-24 -500)
(1.13079e-12 4.32659e-29 -500)
(3.29512e-16 7.77818e-30 -500)
(5.27047e-21 1.43202e-27 -500)
(2.74112e-25 1.4317e-27 -500)
(2.08155e-29 1.43199e-27 -500)
(-3.53938e-29 1.4321e-27 -500)
(-5.77921e-25 5.97287e-28 -500)
(-7.57095e-16 -7.33787e-23 -500)
(-4.32493e-13 1.33376e-14 -500)
(-3.10965e-13 1.94335e-13 -500)
(4.18512e-13 -1.37763e-13 -500)
(3.40109e-13 -1.20425e-14 -500)
(-1.77674e-17 -7.73664e-24 -500)
(-3.0724e-25 1.34262e-27 -500)
(-6.31085e-32 1.43153e-27 -500)
(-2.08039e-29 1.431e-27 -500)
(-2.73855e-25 1.43241e-27 -500)
(-5.27047e-21 1.43166e-27 -500)
(-1.19067e-15 7.00075e-30 -500)
(-1.1299e-12 4.32842e-29 -500)
(1.13079e-12 -2.10794e-27 -500)
(3.29512e-16 -1.90898e-28 -500)
(5.27047e-21 -1.32379e-27 -500)
(2.74112e-25 -2.16627e-27 -500)
(2.08198e-29 -1.84593e-27 -500)
(-5.58419e-29 -1.17272e-27 -500)
(-1.56641e-24 -1.50225e-27 -500)
(3.5545e-15 1.89907e-23 -500)
(-1.51883e-13 1.69518e-14 -500)
(-2.51524e-13 2.33763e-13 -500)
(1.98151e-13 7.40543e-16 -500)
(2.50256e-13 7.72506e-15 -500)
(1.8869e-21 -6.19075e-23 -500)
(1.09584e-24 -3.45778e-27 -500)
(2.43342e-29 -2.30183e-27 -500)
(-2.07953e-29 -2.48543e-27 -500)
(-2.73855e-25 -2.56646e-28 -500)
(-5.27047e-21 -1.62639e-27 -500)
(-1.19067e-15 -6.12052e-28 -500)
(-1.1299e-12 -2.1073e-27 -500)
(1.13079e-12 -4.62637e-23 -500)
(3.29512e-16 -1.59645e-23 -500)
(5.27047e-21 -2.01291e-23 -500)
(2.74082e-25 -2.75595e-23 -500)
(5.73407e-29 -1.95925e-23 -500)
(-5.18225e-29 -5.01033e-24 -500)
(-6.68737e-25 -2.88153e-23 -500)
(6.80158e-15 2.69928e-23 -500)
(-1.66631e-13 -9.89207e-15 -500)
(-2.47473e-13 -7.76561e-14 -500)
(1.58855e-13 -1.2958e-13 -500)
(2.46573e-13 -1.32171e-14 -500)
(1.51728e-20 -1.32327e-23 -500)
(2.64213e-24 -6.98181e-23 -500)
(6.57636e-29 -3.65504e-23 -500)
(-3.37151e-30 -7.05011e-23 -500)
(-2.73855e-25 2.85053e-24 -500)
(-5.27047e-21 -3.2551e-23 -500)
(-1.19067e-15 -4.98214e-23 -500)
(-1.1299e-12 -4.61588e-23 -500)
(1.13079e-12 3.22204e-16 -500)
(3.29518e-16 -8.82971e-16 -500)
(8.80845e-21 7.26604e-15 -500)
(-1.77054e-22 2.98972e-15 -500)
(7.94025e-20 6.22185e-15 -500)
(-1.23683e-20 3.79818e-16 -500)
(-1.18916e-24 -2.48249e-16 -500)
(3.29767e-16 2.21165e-15 -500)
(-2.90448e-13 1.60146e-14 -500)
(-3.58112e-13 8.82086e-14 -500)
(2.47368e-13 6.41002e-14 -500)
(4.2656e-13 1.06415e-14 -500)
(4.48758e-21 3.44171e-15 -500)
(-1.21093e-19 7.80702e-16 -500)
(6.20663e-21 1.31794e-15 -500)
(2.6643e-20 4.9802e-15 -500)
(4.78877e-21 -8.35571e-16 -500)
(-8.49048e-21 6.08491e-15 -500)
(-1.19067e-15 6.17968e-16 -500)
(-1.1299e-12 -3.73138e-17 -500)
(1.09558e-12 -3.05107e-13 -500)
(1.07297e-14 -3.89381e-13 -500)
(1.02084e-14 -1.60718e-13 -500)
(-2.15563e-15 -2.27518e-13 -500)
(1.14863e-14 -1.83213e-13 -500)
(-1.50236e-14 -4.59457e-14 -500)
(-1.43734e-14 -3.90388e-13 -500)
(7.43478e-15 -2.86778e-13 -500)
(-3.6912e-14 -2.13982e-13 -500)
(-1.79684e-13 -2.5642e-16 -500)
(6.6472e-14 1.59063e-13 -500)
(1.73095e-13 -1.15768e-13 -500)
(-6.34021e-15 -2.19691e-13 -500)
(-7.31578e-15 -3.05571e-13 -500)
(9.68319e-15 -2.71695e-13 -500)
(-8.87468e-15 -2.06709e-13 -500)
(4.93698e-15 -3.30349e-13 -500)
(5.81006e-15 -1.29468e-13 -500)
(-1.11716e-14 -2.47859e-13 -500)
(-1.10297e-12 -2.84346e-13 -500)
(6.45402e-13 -1.97999e-13 -500)
(1.71317e-13 -1.89891e-13 -500)
(9.20535e-14 -3.04281e-13 -500)
(-3.29018e-14 -4.40658e-13 -500)
(1.74543e-13 -1.01229e-13 -500)
(-1.99152e-13 -3.78021e-13 -500)
(-1.95895e-13 -1.82889e-13 -500)
(1.23521e-13 -3.39413e-13 -500)
(4.69534e-15 -1.84774e-13 -500)
(1.20416e-14 8.2578e-14 -500)
(1.21478e-13 -2.56343e-14 -500)
(-2.81355e-14 -4.32774e-13 -500)
(-1.24624e-13 -9.24506e-14 -500)
(-6.69435e-14 -1.36834e-13 -500)
(9.30937e-14 -1.96403e-13 -500)
(-5.54158e-14 -8.41693e-14 -500)
(1.00866e-13 -1.88923e-13 -500)
(9.03609e-14 -1.42348e-13 -500)
(-1.65526e-13 -1.3462e-13 -500)
(-7.21197e-13 -8.35067e-14 -500)
(8.47178e-13 2.72227e-13 -500)
(-1.00585e-13 2.98283e-13 -500)
(-2.05566e-13 1.52858e-13 -500)
(2.04213e-13 2.51015e-13 -500)
(2.44748e-14 1.68112e-13 -500)
(-9.5779e-14 6.8734e-14 -500)
(6.17951e-14 3.58468e-13 -500)
(2.47552e-14 2.82245e-13 -500)
(3.06835e-13 2.10927e-13 -500)
(-7.80524e-15 7.76307e-14 -500)
(-4.67483e-13 -7.59408e-14 -500)
(1.62317e-13 1.54206e-13 -500)
(2.77695e-13 2.1496e-13 -500)
(-1.29321e-13 3.01015e-13 -500)
(4.73023e-14 2.64194e-13 -500)
(2.30546e-14 2.28364e-13 -500)
(-5.06008e-14 3.03615e-13 -500)
(7.82679e-14 1.28161e-13 -500)
(-3.72087e-15 2.51999e-13 -500)
(-9.53623e-13 2.51849e-13 -500)
(1.11474e-12 2.12323e-13 -500)
(-1.13656e-14 2.01339e-13 -500)
(-2.04542e-14 3.67048e-13 -500)
(1.83798e-14 4.99737e-13 -500)
(8.99979e-15 3.55701e-14 -500)
(-1.1569e-14 4.2993e-13 -500)
(-5.4895e-16 1.72574e-13 -500)
(-4.73119e-15 3.51141e-13 -500)
(-1.6968e-13 1.80806e-13 -500)
(-2.67391e-13 -2.43077e-13 -500)
(1.78466e-13 3.36318e-14 -500)
(2.89042e-13 4.38161e-13 -500)
(1.35501e-14 3.62713e-14 -500)
(-1.64377e-14 1.55541e-13 -500)
(7.37674e-15 2.61949e-13 -500)
(7.02632e-15 8.69177e-14 -500)
(-1.07555e-14 2.23477e-13 -500)
(6.50262e-15 1.5871e-13 -500)
(-9.98091e-17 1.10794e-13 -500)
(-1.12226e-12 1.19687e-13 -500)
(1.13079e-12 8.11481e-20 -500)
(3.29512e-16 4.83996e-21 -500)
(5.2691e-21 4.82236e-20 -500)
(4.23263e-24 6.87659e-20 -500)
(4.51775e-25 -4.50539e-22 -500)
(-1.57288e-24 5.06689e-20 -500)
(-1.43291e-24 5.11852e-21 -500)
(-1.85264e-16 2.13434e-22 -500)
(-2.58516e-13 1.58421e-14 -500)
(-2.05221e-13 1.20208e-13 -500)
(2.14732e-13 2.56358e-14 -500)
(2.21564e-13 7.95532e-15 -500)
(1.51635e-20 9.02635e-21 -500)
(2.55082e-24 5.08102e-21 -500)
(-1.72906e-24 2.15314e-23 -500)
(2.03257e-25 -4.95487e-16 -500)
(1.77913e-25 2.65782e-20 -500)
(-5.2722e-21 4.17735e-20 -500)
(-1.19067e-15 1.18393e-20 -500)
(-1.1299e-12 -2.2977e-16 -500)
(1.13079e-12 3.73566e-23 -500)
(3.29512e-16 1.98062e-23 -500)
(5.27047e-21 5.3558e-23 -500)
(2.74177e-25 5.30984e-23 -500)
(3.04892e-29 -3.2219e-23 -500)
(-4.54877e-29 3.2203e-23 -500)
(-2.22536e-25 1.0212e-23 -500)
(8.26186e-17 3.49522e-23 -500)
(-4.33358e-14 -6.12071e-15 -500)
(-2.64392e-13 -5.59751e-14 -500)
(1.0316e-13 -1.06774e-13 -500)
(2.58873e-13 -5.60294e-15 -500)
(-9.00426e-19 4.35995e-23 -500)
(-1.19078e-25 4.14716e-24 -500)
(-3.2096e-29 -3.87475e-25 -500)
(-2.07625e-29 2.18235e-23 -500)
(-2.73852e-25 1.30445e-23 -500)
(-5.27047e-21 3.67703e-23 -500)
(-1.19067e-15 1.532e-23 -500)
(-1.1299e-12 3.01323e-23 -500)
(1.13079e-12 2.838e-27 -500)
(3.29512e-16 2.87168e-28 -500)
(5.27047e-21 2.09294e-27 -500)
(2.74112e-25 2.48082e-27 -500)
(2.08122e-29 -1.88974e-29 -500)
(-6.55021e-29 2.12879e-27 -500)
(-2.13598e-24 -2.96458e-28 -500)
(-2.1732e-15 -5.95473e-23 -500)
(-3.17198e-13 -1.00874e-14 -500)
(-3.17249e-13 -1.36345e-13 -500)
(2.89843e-13 -2.06274e-14 -500)
(3.36674e-13 -5.1071e-15 -500)
(-3.28188e-18 -5.38051e-24 -500)
(1.33445e-25 3.22061e-28 -500)
(8.16475e-30 1.85384e-30 -500)
(-2.08015e-29 1.00546e-27 -500)
(-2.73855e-25 3.86024e-28 -500)
(-5.27047e-21 1.81377e-27 -500)
(-1.19067e-15 7.25262e-28 -500)
(-1.1299e-12 1.72642e-27 -500)
(1.13079e-12 -4.38758e-29 -500)
(3.29512e-16 -6.67469e-30 -500)
(5.27047e-21 -1.43014e-27 -500)
(2.74112e-25 -1.43032e-27 -500)
(2.08094e-29 -1.43204e-27 -500)
(-6.55005e-29 -1.43063e-27 -500)
(-2.28619e-24 -1.43045e-27 -500)
(4.61637e-15 1.92038e-24 -500)
(-2.28676e-13 1.25206e-14 -500)
(-2.78775e-13 8.77753e-14 -500)
(2.19745e-13 4.20564e-14 -500)
(3.34674e-13 5.30266e-15 -500)
(-3.08142e-17 -5.03737e-25 -500)
(-9.33524e-26 -1.19955e-27 -500)
(-1.98095e-32 -1.43136e-27 -500)
(-2.0803e-29 -1.43083e-27 -500)
(-2.73855e-25 -1.43124e-27 -500)
(-5.27047e-21 -1.43059e-27 -500)
(-1.19067e-15 -6.66559e-30 -500)
(-1.1299e-12 -4.40192e-29 -500)
(1.13079e-12 5.24591e-24 -500)
(3.29512e-16 -1.28062e-23 -500)
(5.27047e-21 -1.28247e-23 -500)
(2.74112e-25 -1.28247e-23 -500)
(2.08093e-29 -1.28247e-23 -500)
(-6.54931e-29 -1.28247e-23 -500)
(-2.1055e-24 -1.28245e-23 -500)
(1.95718e-15 4.91945e-23 -500)
(-2.54446e-13 9.433e-15 -500)
(-2.89277e-13 8.8966e-14 -500)
(2.05435e-13 4.10099e-14 -500)
(3.02937e-13 2.3914e-15 -500)
(-2.22059e-19 -2.7798e-23 -500)
(-2.77473e-25 -1.28247e-23 -500)
(-5.53838e-32 -1.28247e-23 -500)
(-2.0804e-29 -1.28247e-23 -500)
(-2.73855e-25 -1.28247e-23 -500)
(-5.27047e-21 -1.28247e-23 -500)
(-1.19067e-15 -1.28062e-23 -500)
(-1.1299e-12 5.24591e-24 -500)
(1.13079e-12 -5.83711e-22 -500)
(3.29512e-16 -1.75782e-22 -500)
(5.26375e-21 -3.84286e-20 -500)
(2.74111e-25 -3.84287e-20 -500)
(2.07881e-29 -3.84287e-20 -500)
(-3.71409e-29 -3.84287e-20 -500)
(-8.19297e-25 -3.84287e-20 -500)
(2.28546e-15 -3.84572e-20 -500)
(-9.62995e-14 7.61674e-15 -500)
(-2.56629e-13 1.41195e-13 -500)
(1.33123e-13 2.4642e-13 -500)
(2.60436e-13 1.83318e-14 -500)
(3.06013e-23 -3.84635e-20 -500)
(9.8692e-25 -3.84287e-20 -500)
(2.20045e-31 -3.84287e-20 -500)
(-2.07727e-29 -3.84287e-20 -500)
(-2.73855e-25 -3.84287e-20 -500)
(-5.26375e-21 -3.84286e-20 -500)
(-1.19067e-15 -1.75785e-22 -500)
(-1.1299e-12 -5.83711e-22 -500)
(1.13079e-12 -7.55923e-16 -500)
(3.28665e-16 -1.19063e-15 -500)
(9.48701e-24 -1.19067e-15 -500)
(2.73994e-25 -1.19067e-15 -500)
(6.14283e-32 -1.19067e-15 -500)
(-3.50305e-29 -1.19067e-15 -500)
(-2.08819e-24 -1.19067e-15 -500)
(6.51379e-15 -1.19067e-15 -500)
(-1.44472e-13 3.91568e-15 -500)
(-3.30285e-14 5.23561e-14 -500)
(1.09294e-13 8.78619e-14 -500)
(1.10218e-14 7.7294e-15 -500)
(8.71418e-21 -1.19067e-15 -500)
(1.5708e-24 -1.19067e-15 -500)
(3.70889e-29 -1.19067e-15 -500)
(-4.80897e-32 -1.19067e-15 -500)
(-2.73994e-25 -1.19067e-15 -500)
(-9.48724e-24 -1.19067e-15 -500)
(-1.18982e-15 -1.19063e-15 -500)
(-1.1299e-12 -7.55923e-16 -500)
(1.13182e-12 -1.13095e-12 -500)
(-1.05254e-16 -1.1299e-12 -500)
(6.50798e-22 -1.1299e-12 -500)
(3.33842e-25 -1.1299e-12 -500)
(9.66759e-30 -1.1299e-12 -500)
(-5.18504e-32 -1.1299e-12 -500)
(-4.36774e-25 -1.1299e-12 -500)
(2.0936e-19 -1.1299e-12 -500)
(5.48784e-14 -1.12636e-12 -500)
(-7.99261e-14 -1.05329e-12 -500)
(-1.12525e-14 -1.05806e-12 -500)
(1.04479e-13 -1.13083e-12 -500)
(2.69771e-21 -1.1299e-12 -500)
(8.17839e-25 -1.1299e-12 -500)
(2.7308e-29 -1.1299e-12 -500)
(-9.65585e-30 -1.1299e-12 -500)
(-3.33824e-25 -1.1299e-12 -500)
(-6.50797e-22 -1.1299e-12 -500)
(-7.559e-16 -1.1299e-12 -500)
(-1.13095e-12 -1.13095e-12 -500)
(1.14576e-12 1.14576e-12 -500)
(-1.04891e-16 1.14577e-12 -500)
(1.05646e-24 1.14577e-12 -500)
(3.33348e-25 1.14577e-12 -500)
(1.01978e-31 1.14577e-12 -500)
(-9.81997e-32 1.14577e-12 -500)
(-9.84218e-25 1.14577e-12 -500)
(-5.8509e-16 1.14582e-12 -500)
(1.47462e-13 1.12859e-12 -500)
(-2.26505e-13 9.04827e-13 -500)
(-6.86864e-14 6.93495e-13 -500)
(2.43184e-13 1.07319e-12 -500)
(7.20167e-24 1.14577e-12 -500)
(2.767e-25 1.14577e-12 -500)
(3.62516e-32 1.14577e-12 -500)
(-9.30322e-32 1.14577e-12 -500)
(-3.33348e-25 1.14577e-12 -500)
(-1.05646e-24 1.14577e-12 -500)
(-7.83696e-16 1.14577e-12 -500)
(-1.14514e-12 1.14576e-12 -500)
(1.14577e-12 -1.0526e-16 -500)
(3.29512e-16 3.29522e-16 -500)
(7.2597e-24 3.29522e-16 -500)
(2.73606e-25 3.29522e-16 -500)
(3.63704e-32 3.29522e-16 -500)
(-2.55223e-32 3.29522e-16 -500)
(-3.73769e-25 3.29522e-16 -500)
(-2.24976e-15 3.29522e-16 -500)
(-3.5279e-13 -4.24442e-14 -500)
(-3.11114e-13 -4.62403e-13 -500)
(3.22052e-13 -6.86358e-14 -500)
(3.121e-13 3.39791e-14 -500)
(3.60597e-23 3.29522e-16 -500)
(1.77642e-24 3.29522e-16 -500)
(2.84838e-31 3.29522e-16 -500)
(-1.63735e-32 3.29522e-16 -500)
(-2.73605e-25 3.29522e-16 -500)
(-7.2597e-24 3.29522e-16 -500)
(-1.2181e-15 3.29522e-16 -500)
(-1.14507e-12 -1.0526e-16 -500)
(1.14577e-12 -6.6065e-23 -500)
(3.29512e-16 1.75786e-22 -500)
(7.26e-24 1.75797e-22 -500)
(2.73606e-25 1.75798e-22 -500)
(3.07529e-32 1.75798e-22 -500)
(-2.09402e-31 1.75798e-22 -500)
(-1.88178e-24 1.75798e-22 -500)
(-6.64932e-16 1.99844e-22 -500)
(-4.45765e-13 1.01001e-14 -500)
(-3.27906e-13 5.38074e-14 -500)
(3.72426e-13 -1.37645e-15 -500)
(3.50754e-13 -1.07711e-16 -500)
(1.71682e-23 1.8905e-22 -500)
(7.46076e-25 1.75798e-22 -500)
(1.3918e-31 1.75798e-22 -500)
(-1.87784e-32 1.75798e-22 -500)
(-2.73605e-25 1.75798e-22 -500)
(-7.26e-24 1.75797e-22 -500)
(-1.2181e-15 1.75786e-22 -500)
(-1.14507e-12 -6.6065e-23 -500)
(1.14577e-12 -5.24772e-24 -500)
(3.29512e-16 1.28079e-23 -500)
(7.26e-24 1.28079e-23 -500)
(2.73606e-25 1.28079e-23 -500)
(3.44754e-32 1.28079e-23 -500)
(-7.31288e-32 1.28079e-23 -500)
(-6.43427e-25 1.28079e-23 -500)
(2.35583e-15 2.49263e-23 -500)
(-2.56407e-13 2.0746e-14 -500)
(-2.88903e-13 1.99281e-13 -500)
(2.56715e-13 2.60013e-13 -500)
(3.34924e-13 1.95137e-14 -500)
(2.59663e-23 2.41756e-23 -500)
(1.30543e-24 1.28079e-23 -500)
(2.00228e-31 1.28079e-23 -500)
(-1.83139e-32 1.28079e-23 -500)
(-2.73605e-25 1.28079e-23 -500)
(-7.26e-24 1.28079e-23 -500)
(-1.2181e-15 1.28079e-23 -500)
(-1.14507e-12 -5.24772e-24 -500)
(1.14577e-12 -4.20025e-30 -500)
(3.29512e-16 7.38193e-30 -500)
(7.26e-24 7.29791e-30 -500)
(2.73606e-25 8.1498e-30 -500)
(3.14499e-32 8.49158e-30 -500)
(-1.87589e-31 8.17268e-30 -500)
(-1.78175e-24 -1.34922e-30 -500)
(3.27296e-15 -3.22428e-23 -500)
(-1.21568e-13 1.85669e-14 -500)
(-8.52114e-14 2.45627e-13 -500)
(1.4447e-13 1.33212e-13 -500)
(5.69762e-14 8.89289e-15 -500)
(-2.36923e-16 1.84306e-23 -500)
(2.15619e-25 1.42569e-29 -500)
(3.72216e-32 7.79684e-30 -500)
(-2.12665e-32 7.14794e-30 -500)
(-2.73605e-25 7.95045e-30 -500)
(-7.26e-24 7.63116e-30 -500)
(-1.2181e-15 6.63853e-30 -500)
(-1.14507e-12 -4.09776e-30 -500)
(1.14577e-12 -2.74951e-29 -500)
(3.29512e-16 -2.14416e-29 -500)
(7.26e-24 -2.34802e-29 -500)
(2.73606e-25 -9.37237e-31 -500)
(2.97203e-32 8.9975e-30 -500)
(-2.51088e-31 2.20057e-30 -500)
(-1.93191e-24 -3.12658e-31 -500)
(5.05889e-16 4.52501e-23 -500)
(-2.10843e-14 1.03474e-15 -500)
(-2.06805e-13 5.91615e-14 -500)
(4.30455e-14 -2.16234e-13 -500)
(2.04612e-13 -2.11225e-14 -500)
(1.43685e-23 -5.32303e-23 -500)
(5.39169e-25 -4.42364e-29 -500)
(7.21264e-32 -1.25262e-29 -500)
(-1.81187e-32 -2.78643e-29 -500)
(-2.73605e-25 -7.81266e-30 -500)
(-7.26e-24 -1.47072e-29 -500)
(-1.2181e-15 -4.18952e-29 -500)