/*--------------------------------*- C++ -*----------------------------------*\
| =========                 |                                                 |
| \\      /  F ield         | OpenFOAM: The Open Source CFD Toolbox           |
|  \\    /   O peration     | Version:  2412                                  |
|   \\  /    A nd           | Website:  www.openfoam.com                      |
|    \\/     M anipulation  |                                                 |
\*---------------------------------------------------------------------------*/
FoamFile
{
    version     2.0;
    format      ascii;
    arch        "LSB;label=32;scalar=64";
    class       volVectorField;
    location    "0";
    object      U;
}
// * * * * * * * * * * * * * * * * * * * * * * * * * * * * * * * * * * * * * //

dimensions      [0 1 -1 0 0 0 0];

internalField   nonuniform List<vector> 
54102
(
(-0.000925546 -0.000953261 100.002)
(-0.00282635 -0.00101291 100.002)
(-0.00464651 -0.00110398 100.002)
(-0.00618066 -0.00123271 100.002)
(-0.00736235 -0.00139735 100.002)
(-0.0081126 -0.00159247 100.002)
(-0.00836534 -0.00180956 100.002)
(-0.00807827 -0.00203688 100.002)
(-0.00724153 -0.00225986 100.002)
(-0.00588947 -0.00245699 100.002)
(-0.00409798 -0.00261926 100.002)
(-0.00198394 -0.00272478 100.002)
(0.000283555 -0.00275648 100.002)
(0.00253089 -0.00272329 100.002)
(0.00460427 -0.00262477 100.002)
(0.00636681 -0.00247271 100.002)
(0.00764346 -0.0022368 100.002)
(0.00836855 -0.00202263 100.002)
(0.00857779 -0.00179344 100.002)
(0.00826678 -0.00157199 100.002)
(0.00747282 -0.00137229 100.002)
(0.0062601 -0.00120402 100.002)
(0.00470988 -0.00107384 100.002)
(0.00291561 -0.000986637 100.002)
(0.000984905 -0.000947792 100.002)
(-0.000985192 -0.00290954 100.002)
(-0.00297707 -0.00306112 100.002)
(-0.00486631 -0.00332262 100.002)
(-0.00647404 -0.00369977 100.002)
(-0.00772211 -0.00418524 100.002)
(-0.00852481 -0.00476331 100.002)
(-0.00880975 -0.0054093 100.002)
(-0.00852857 -0.00608815 100.002)
(-0.00766164 -0.00676221 100.002)
(-0.00624887 -0.00734644 100.002)
(-0.00436577 -0.00784819 100.001)
(-0.00212116 -0.00818065 100.001)
(0.000285043 -0.00826667 100.001)
(0.0026626 -0.00817777 100.001)
(0.00485486 -0.00788574 100.001)
(0.00667144 -0.00739139 100.002)
(0.0080102 -0.0067418 100.002)
(0.00881191 -0.00607052 100.002)
(0.00902844 -0.00537531 100.002)
(0.00868793 -0.00470956 100.002)
(0.0078408 -0.00411185 100.002)
(0.00655855 -0.00360971 100.002)
(0.00492726 -0.00322175 100.002)
(0.00304166 -0.00296007 100.002)
(0.00102375 -0.00283369 100.002)
(-0.00107712 -0.00478196 100.002)
(-0.00323943 -0.00500343 100.002)
(-0.00528516 -0.00542242 100.002)
(-0.00704328 -0.00603628 100.002)
(-0.0084259 -0.00683129 100.002)
(-0.00933665 -0.00778251 100.002)
(-0.00969018 -0.00885009 100.002)
(-0.00943118 -0.00996891 100.001)
(-0.00849981 -0.0111323 100.001)
(-0.00689212 -0.0121214 100.001)
(-0.00476552 -0.0129373 100.001)
(-0.00231076 -0.0134849 100.001)
(0.000378104 -0.0136873 100.001)
(0.00307849 -0.0135185 100.001)
(0.00547399 -0.0129898 100.001)
(0.00742743 -0.0121406 100.001)
(0.008881 -0.0111377 100.001)
(0.00973503 -0.00998044 100.002)
(0.00993877 -0.00881365 100.002)
(0.00953024 -0.00770607 100.002)
(0.00857267 -0.00671665 100.002)
(0.0071502 -0.00588859 100.002)
(0.00535953 -0.00525022 100.002)
(0.00330367 -0.00481822 100.002)
(0.00111128 -0.00460074 100.002)
(-0.00120666 -0.00636093 100.002)
(-0.00361753 -0.00665554 100.002)
(-0.00589916 -0.00722516 100.002)
(-0.00788291 -0.00806514 100.002)
(-0.00946834 -0.00915717 100.002)
(-0.0105436 -0.010468 100.002)
(-0.0109961 -0.0119506 100.001)
(-0.0107274 -0.0135088 100.001)
(-0.00973075 -0.0151436 100.001)
(-0.00797058 -0.0165979 100.001)
(-0.00556266 -0.0176535 100.001)
(-0.00276279 -0.0183871 100.001)
(0.00035984 -0.0188453 100.001)
(0.00352682 -0.01855 100.001)
(0.00631605 -0.0177107 100.001)
(0.00860684 -0.0165729 100.001)
(0.0102537 -0.015153 100.001)
(0.011136 -0.0135357 100.001)
(0.0113028 -0.0119133 100.001)
(0.0107849 -0.0103786 100.002)
(0.00965828 -0.00901315 100.002)
(0.00802498 -0.00787505 100.002)
(0.00599763 -0.00700073 100.002)
(0.00369114 -0.0064102 100.002)
(0.00124123 -0.00611249 100.002)
(-0.00137173 -0.00758002 100.002)
(-0.00410366 -0.00794016 100.002)
(-0.00669476 -0.00864471 100.002)
(-0.00897529 -0.00968888 100.002)
(-0.0108288 -0.0110491 100.002)
(-0.0121301 -0.0126769 100.001)
(-0.012731 -0.0145536 100.001)
(-0.0125408 -0.0164793 100.001)
(-0.0115056 -0.0185582 100.001)
(-0.00940199 -0.0206428 100)
(-0.00663798 -0.0216057 100)
(-0.00354428 -0.0225915 100)
(0.000173579 -0.0235929 100)
(0.00404645 -0.0231037 100)
(0.00745102 -0.0219116 100)
(0.0101518 -0.0204454 100.001)
(0.0120016 -0.018611 100.001)
(0.0129748 -0.0165672 100.001)
(0.0130959 -0.014531 100.001)
(0.0124304 -0.0126008 100.001)
(0.0110762 -0.0108895 100.002)
(0.00916261 -0.00947033 100.002)
(0.00682438 -0.00838581 100.002)
(0.0041919 -0.0076564 100.002)
(0.00140898 -0.00728949 100.002)
(-0.00156681 -0.00836296 100.002)
(-0.00468222 -0.00877441 100.002)
(-0.00764788 -0.0095879 100.002)
(-0.0102873 -0.0108019 100.002)
(-0.0124564 -0.0123856 100.001)
(-0.0140481 -0.014202 100.001)
(-0.0147985 -0.0164987 100.001)
(-0.014732 -0.0184571 100)
(-0.0138943 -0.020942 100)
(-0.0117681 -0.023938 99.9999)
(-0.00826145 -0.0251331 99.9997)
(-0.00385822 -0.0263959 99.9995)
(0.000655988 -0.0274399 99.9994)
(0.00512484 -0.0269842 99.9994)
(0.009141 -0.0251273 99.9995)
(0.0119907 -0.0232222 99.9998)
(0.0140487 -0.0213757 100)
(0.015216 -0.0188291 100.001)
(0.0152691 -0.0164971 100.001)
(0.0144264 -0.0142235 100.001)
(0.0127888 -0.0122161 100.001)
(0.0105287 -0.0105626 100.002)
(0.00781157 -0.00930914 100.002)
(0.00478745 -0.00847222 100.002)
(0.00160814 -0.00805188 100.002)
(-0.00178318 -0.00864747 100.002)
(-0.0053286 -0.00908766 100.002)
(-0.00872225 -0.00996951 100.002)
(-0.011773 -0.0113081 100.001)
(-0.0142289 -0.0131214 100.001)
(-0.0162433 -0.0146529 100.001)
(-0.0178195 -0.0171763 100)
(-0.0178174 -0.0198907 100)
(-0.0160699 -0.0226133 99.9996)
(-0.0134264 -0.0259115 99.9991)
(-0.00967924 -0.0278903 99.9987)
(-0.00478444 -0.0293851 99.9984)
(0.000568655 -0.0300325 99.9983)
(0.0057758 -0.0296308 99.9984)
(0.0106297 -0.0275341 99.9987)
(0.0148201 -0.0253104 99.9992)
(0.0172281 -0.0227243 99.9995)
(0.0178534 -0.0198398 100)
(0.0177015 -0.017688 100.001)
(0.0167113 -0.0150909 100.001)
(0.0147371 -0.0128608 100.001)
(0.0120696 -0.0110401 100.001)
(0.00891477 -0.00968019 100.002)
(0.00544916 -0.00878685 100.002)
(0.00182932 -0.00833456 100.002)
(-0.002007 -0.00839589 100.002)
(-0.00600427 -0.00882741 100.002)
(-0.00986836 -0.00970887 100.002)
(-0.0134392 -0.0110699 100.001)
(-0.0166345 -0.0129311 100.001)
(-0.0189364 -0.0144748 100.001)
(-0.0200364 -0.0169418 100)
(-0.0201691 -0.0202497 99.9994)
(-0.0189151 -0.0232256 99.9987)
(-0.0160451 -0.0262661 99.998)
(-0.0116517 -0.0287053 99.9972)
(-0.00584217 -0.0303504 99.9967)
(0.000651992 -0.0309013 99.9965)
(0.00704002 -0.0303474 99.9967)
(0.0127116 -0.0285937 99.9973)
(0.0169673 -0.0261712 99.9981)
(0.0196859 -0.0228359 99.9989)
(0.0210857 -0.0199179 99.9996)
(0.0208515 -0.0176729 100)
(0.0192536 -0.0150052 100.001)
(0.0168397 -0.0126993 100.001)
(0.0137093 -0.0107948 100.001)
(0.0100648 -0.00942008 100.002)
(0.00613308 -0.00856117 100.002)
(0.00206043 -0.00809602 100.002)
(-0.00221471 -0.0076114 100.002)
(-0.00664159 -0.00797338 100.002)
(-0.0109648 -0.00875696 100.001)
(-0.0149952 -0.0100191 100.001)
(-0.0185505 -0.0117037 100.001)
(-0.0213373 -0.013568 100)
(-0.0230111 -0.0159128 99.9996)
(-0.0232679 -0.0188447 99.9987)
(-0.0219195 -0.0218871 99.9978)
(-0.0187395 -0.0248252 99.9967)
(-0.0135968 -0.0271724 99.9955)
(-0.00688861 -0.0287279 99.9948)
(0.000663484 -0.0292878 99.9946)
(0.00825009 -0.0287637 99.9949)
(0.0149727 -0.0272147 99.9957)
(0.0199947 -0.0248107 99.9968)
(0.0229815 -0.0217237 99.9979)
(0.0240999 -0.0188823 99.9988)
(0.0236143 -0.0163223 99.9996)
(0.0217683 -0.0138054 100)
(0.0188642 -0.0116064 100.001)
(0.0152655 -0.00983403 100.001)
(0.0112317 -0.00857288 100.001)
(0.00685655 -0.00775833 100.002)
(0.00229447 -0.00731958 100.002)
(-0.00245232 -0.00628838 100.002)
(-0.00731651 -0.00658602 100.002)
(-0.0119975 -0.00724835 100.001)
(-0.016386 -0.00826756 100.001)
(-0.02035 -0.00965833 100.001)
(-0.0235622 -0.0113258 99.9999)
(-0.0256464 -0.0133844 99.999)
(-0.0262268 -0.0159996 99.998)
(-0.0248956 -0.0186414 99.9967)
(-0.0213305 -0.021152 99.9952)
(-0.015471 -0.0231432 99.9939)
(-0.0077659 -0.0244976 99.9931)
(0.000891256 -0.0250426 99.9928)
(0.00944679 -0.0246189 99.9931)
(0.0169148 -0.023246 99.994)
(0.0225418 -0.0212063 99.9953)
(0.0259479 -0.0186105 99.9968)
(0.0269872 -0.0159337 99.9981)
(0.0261784 -0.0138793 99.9992)
(0.0240529 -0.011558 100)
(0.0208111 -0.00968177 100.001)
(0.0168262 -0.0082047 100.001)
(0.0123072 -0.00713211 100.001)
(0.00746972 -0.00639849 100.002)
(0.00249918 -0.00603268 100.002)
(-0.00259569 -0.00449245 100.002)
(-0.00776823 -0.00472701 100.001)
(-0.012813 -0.00523436 100.001)
(-0.0175719 -0.00590325 100.001)
(-0.0218587 -0.00685244 100)
(-0.0253968 -0.00803754 99.9996)
(-0.027935 -0.00941488 99.9986)
(-0.0287748 -0.0116473 99.9973)
(-0.0272387 -0.0135118 99.9956)
(-0.0232414 -0.0151985 99.9939)
(-0.0168591 -0.0167175 99.9925)
(-0.00849628 -0.0177765 99.9914)
(0.00100068 -0.0181943 99.991)
(0.0103802 -0.0178326 99.9915)
(0.0185522 -0.0168314 99.9926)
(0.0247972 -0.0153354 99.994)
(0.0285878 -0.0135908 99.9958)
(0.0299979 -0.0116058 99.9974)
(0.0289901 -0.0100526 99.9988)
(0.0261325 -0.00829748 99.9997)
(0.0223842 -0.00698205 100)
(0.0179819 -0.00592917 100.001)
(0.0131213 -0.00511304 100.001)
(0.00795598 -0.00457672 100.002)
(0.00266028 -0.00431476 100.002)
(-0.00268689 -0.00240476 100.002)
(-0.00805844 -0.00250345 100.001)
(-0.0133404 -0.00274998 100.001)
(-0.0183374 -0.0030597 100.001)
(-0.0228177 -0.00350661 100)
(-0.026458 -0.00405084 99.9994)
(-0.0287562 -0.00462783 99.9983)
(-0.0296572 -0.00582925 99.9968)
(-0.0285303 -0.00670268 99.9949)
(-0.0245362 -0.00750801 99.9931)
(-0.0178824 -0.00826721 99.9914)
(-0.009026 -0.00882888 99.9902)
(0.00113538 -0.00910937 99.9898)
(0.0112266 -0.00889951 99.9903)
(0.0199123 -0.00847947 99.9915)
(0.026366 -0.00774061 99.9932)
(0.0302611 -0.00700038 99.9951)
(0.0316923 -0.00626862 99.9969)
(0.0304869 -0.00495249 99.9985)
(0.0273735 -0.00421997 99.9996)
(0.0234295 -0.00361466 100)
(0.0187786 -0.00312493 100.001)
(0.0136596 -0.00268865 100.001)
(0.008268 -0.00240581 100.002)
(0.00276113 -0.00228482 100.002)
(-0.00271938 -0.00017324 100.002)
(-0.00817181 -8.65643e-05 100.001)
(-0.0135276 -5.26586e-05 100.001)
(-0.0185952 2.81397e-05 100.001)
(-0.0231583 0.000109304 100)
(-0.0268765 0.000257315 99.9993)
(-0.0292718 0.000399664 99.9982)
(-0.0302499 0.000918477 99.9967)
(-0.0290509 0.00097184 99.9947)
(-0.0249644 0.00115605 99.9928)
(-0.0182466 0.00131972 99.9911)
(-0.00919665 0.00131607 99.9898)
(0.00121359 0.00120453 99.9893)
(0.0115604 0.00116368 99.9899)
(0.020403 0.0010636 99.9912)
(0.0269183 0.000810525 99.993)
(0.0307849 0.000604098 99.9948)
(0.031746 0.000219457 99.9967)
(0.0304555 0.00043757 99.9984)
(0.0276787 0.0002032 99.9995)
(0.0237293 4.54069e-05 100)
(0.0190496 -8.01057e-05 100.001)
(0.0138738 -3.24237e-05 100.001)
(0.00837649 -3.4455e-05 100.001)
(0.00278961 -0.000103084 100.002)
(-0.00270855 0.00206614 100.002)
(-0.00807953 0.00228089 100.001)
(-0.0133007 0.00257524 100.001)
(-0.0182755 0.00311613 100.001)
(-0.0228136 0.00375731 100)
(-0.0266094 0.00464517 99.9994)
(-0.0294035 0.0057103 99.9984)
(-0.0303185 0.00734367 99.9968)
(-0.0286763 0.0084723 99.9949)
(-0.0245133 0.00971336 99.9932)
(-0.017789 0.0107724 99.9915)
(-0.0088494 0.0113309 99.9903)
(0.00133316 0.0114287 99.9899)
(0.0113859 0.0111555 99.9904)
(0.0200844 0.0104623 99.9917)
(0.0265485 0.00929582 99.9933)
(0.0303119 0.00820346 99.9952)
(0.0313093 0.00684052 99.9971)
(0.030054 0.00559409 99.9985)
(0.0272731 0.0045881 99.9995)
(0.0233962 0.00367841 100)
(0.0187591 0.0029464 100.001)
(0.0136553 0.00257826 100.001)
(0.00829734 0.00229392 100.002)
(0.00278417 0.00208821 100.002)
(-0.00258796 0.00411061 100.002)
(-0.00774606 0.00440593 100.002)
(-0.0127757 0.00493924 100.001)
(-0.0174965 0.00588893 100.001)
(-0.0217959 0.00714782 100)
(-0.0254236 0.00871617 99.9996)
(-0.0279068 0.0105958 99.9987)
(-0.0286547 0.0127971 99.9973)
(-0.0271814 0.0150703 99.9957)
(-0.0231644 0.0170736 99.9941)
(-0.0166291 0.0188371 99.9926)
(-0.00812356 0.0198967 99.9916)
(0.00145493 0.020212 99.9912)
(0.0109275 0.0197824 99.9916)
(0.0191269 0.018543 99.9927)
(0.0252429 0.0167417 99.9942)
(0.0288299 0.014747 99.9959)
(0.0297202 0.012497 99.9976)
(0.0285366 0.0102783 99.9988)
(0.0260131 0.0085045 99.9998)
(0.022421 0.00694264 100)
(0.0180328 0.00574385 100.001)
(0.013138 0.00494006 100.001)
(0.00796977 0.00440263 100.002)
(0.00266723 0.00412116 100.002)
(-0.00241324 0.00580924 100.002)
(-0.00725092 0.00623582 100.002)
(-0.0119844 0.00694929 100.001)
(-0.0164003 0.00815217 100.001)
(-0.0203198 0.00989381 100.001)
(-0.0234949 0.0119571 100)
(-0.0256562 0.0144155 99.9991)
(-0.0261776 0.0168579 99.9981)
(-0.02465 0.0199874 99.9968)
(-0.0209967 0.0226202 99.9953)
(-0.0150493 0.0247902 99.9941)
(-0.00729112 0.0261743 99.9933)
(0.00131887 0.0266776 99.993)
(0.0098836 0.0260722 99.9934)
(0.0174605 0.024564 99.9942)
(0.0230861 0.0224002 99.9955)
(0.0263173 0.0197414 99.9969)
(0.027174 0.0169957 99.9982)
(0.0263116 0.0138592 99.9992)
(0.0241874 0.0116247 100)
(0.0208856 0.00961176 100.001)
(0.0168399 0.0080354 100.001)
(0.0123141 0.00692522 100.001)
(0.00747845 0.00619036 100.002)
(0.0025027 0.00582225 100.002)
(-0.00224473 0.00711745 100.002)
(-0.00668935 0.00761161 100.002)
(-0.0109428 0.00840263 100.001)
(-0.0148854 0.00979247 100.001)
(-0.0183244 0.0117395 100.001)
(-0.0209853 0.0141391 100)
(-0.0224228 0.0168743 99.9995)
(-0.0227497 0.0195358 99.9989)
(-0.0216694 0.0228963 99.9979)
(-0.0184453 0.0258973 99.9969)
(-0.0131585 0.0283064 99.9957)
(-0.00631959 0.0299295 99.9951)
(0.00126946 0.0305043 99.9949)
(0.00881394 0.0297836 99.9951)
(0.015455 0.0281239 99.9958)
(0.0204204 0.0257565 99.9969)
(0.0234254 0.0228212 99.9979)
(0.0247547 0.0198152 99.9988)
(0.0241656 0.0163295 99.9998)
(0.0220157 0.0137533 100)
(0.0190816 0.0115041 100.001)
(0.0154296 0.00968711 100.001)
(0.0112929 0.00838368 100.001)
(0.0068668 0.00751962 100.002)
(0.00229912 0.00708921 100.002)
(-0.00200242 0.0079155 100.002)
(-0.00596574 0.00838822 100.002)
(-0.00980355 0.00923356 100.002)
(-0.0133134 0.0106664 100.001)
(-0.0161398 0.0125314 100.001)
(-0.0183602 0.0154198 100.001)
(-0.0196764 0.0179947 99.9999)
(-0.0198224 0.0208919 99.9996)
(-0.0187052 0.0240162 99.9988)
(-0.0158368 0.0268121 99.9982)
(-0.0112673 0.0292909 99.9974)
(-0.00540996 0.0310446 99.9969)
(0.00110617 0.0315749 99.9968)
(0.00758641 0.0308669 99.997)
(0.0132668 0.0291731 99.9975)
(0.0177 0.0266411 99.9982)
(0.0204593 0.0241693 99.9988)
(0.021599 0.0209678 99.9994)
(0.0212497 0.0176497 100)
(0.0195287 0.0148327 100.001)
(0.0169861 0.0125045 100.001)
(0.0138028 0.0106282 100.001)
(0.0101466 0.00923506 100.002)
(0.00618399 0.00831269 100.002)
(0.00207229 0.0078535 100.002)
(-0.00177201 0.00814547 100.002)
(-0.00528796 0.00859471 100.002)
(-0.0086646 0.00947803 100.002)
(-0.0117543 0.010828 100.001)
(-0.0144877 0.0125749 100.001)
(-0.0163554 0.0153559 100.001)
(-0.0170342 0.0177189 100.001)
(-0.0169784 0.0209056 100)
(-0.0159994 0.0237743 99.9995)
(-0.0133373 0.0257946 99.9991)
(-0.00925944 0.0282284 99.9987)
(-0.00445248 0.0299507 99.9984)
(0.000841598 0.0303268 99.9983)
(0.00616199 0.0296182 99.9985)
(0.0108957 0.0280728 99.9988)
(0.0144998 0.0257531 99.9992)
(0.0170021 0.0236079 99.9998)
(0.0183184 0.0206133 100)
(0.0181972 0.0175707 100.001)
(0.016954 0.0149006 100.001)
(0.0148772 0.0126459 100.001)
(0.0121602 0.0108233 100.001)
(0.00897745 0.00945437 100.002)
(0.00548525 0.00854351 100.002)
(0.00183993 0.00808908 100.002)
(-0.00155318 0.00786881 100.002)
(-0.00463319 0.00828432 100.002)
(-0.00757029 0.00911274 100.002)
(-0.0102166 0.0103588 100.002)
(-0.0124452 0.0120162 100.001)
(-0.0140496 0.0141399 100.001)
(-0.0149601 0.0163582 100.001)
(-0.0147671 0.0193669 100.001)
(-0.0131498 0.021846 100)
(-0.0105495 0.0234088 99.9999)
(-0.00727788 0.0259196 99.9995)
(-0.00364506 0.0278361 99.9993)
(0.0004401 0.0276642 99.9993)
(0.00499905 0.0266877 99.9995)
(0.0091516 0.0254644 99.9997)
(0.0123184 0.0236377 100)
(0.0144862 0.0214285 100)
(0.0155618 0.0189548 100.001)
(0.015537 0.0163812 100.001)
(0.014604 0.0140292 100.001)
(0.0129088 0.0119947 100.001)
(0.0106113 0.0103323 100.002)
(0.00786684 0.0090733 100.002)
(0.00481869 0.00823115 100.002)
(0.00161786 0.00780988 100.002)
(-0.0013565 0.00712395 100.002)
(-0.00404403 0.00748611 100.002)
(-0.00659017 0.00820797 100.002)
(-0.00885083 0.00928583 100.002)
(-0.0107066 0.0107069 100.002)
(-0.0120134 0.0124463 100.001)
(-0.0126406 0.0144012 100.001)
(-0.0124074 0.0165883 100.001)
(-0.0112077 0.0185986 100.001)
(-0.00934716 0.0202644 100.001)
(-0.00674888 0.0223848 100.001)
(-0.00303295 0.0239921 100.001)
(0.00103476 0.0237374 100)
(0.00462882 0.022811 100)
(0.00776238 0.0218662 100)
(0.0103806 0.0204148 100.001)
(0.0122359 0.0185056 100.001)
(0.0131878 0.0164999 100.001)
(0.0132716 0.0143731 100.001)
(0.0125675 0.012401 100.001)
(0.0111802 0.0106723 100.002)
(0.00923874 0.00924641 100.002)
(0.0068763 0.00815898 100.002)
(0.00422183 0.00742811 100.002)
(0.00141866 0.00706155 100.002)
(-0.00119103 0.0059738 100.002)
(-0.00354917 0.00626724 100.002)
(-0.00577056 0.0068509 100.002)
(-0.00771765 0.0077179 100.002)
(-0.00928473 0.00885183 100.002)
(-0.0103553 0.0102203 100.002)
(-0.0108181 0.0117612 100.001)
(-0.0105698 0.0134007 100.001)
(-0.00955706 0.0149622 100.001)
(-0.00784671 0.0164496 100.001)
(-0.00546694 0.0178332 100.001)
(-0.00250087 0.0187039 100.001)
(0.000717224 0.0188377 100.001)
(0.00379451 0.0183675 100.001)
(0.00650539 0.0175965 100.001)
(0.00879094 0.0164348 100.001)
(0.0104046 0.0149992 100.001)
(0.0112626 0.0133788 100.001)
(0.0114381 0.0117363 100.001)
(0.0109031 0.0101876 100.002)
(0.00975419 0.00881518 100.002)
(0.00809802 0.00767446 100.002)
(0.00604853 0.00679935 100.002)
(0.00372126 0.00620867 100.002)
(0.00125131 0.00591163 100.002)
(-0.00106305 0.00449874 100.002)
(-0.00316693 0.00471298 100.002)
(-0.0051395 0.00513944 100.002)
(-0.0068499 0.00577086 100.002)
(-0.00820418 0.00659222 100.002)
(-0.00910397 0.00757663 100.002)
(-0.00946022 0.00867979 100.002)
(-0.0092064 0.00983897 100.002)
(-0.0083255 0.0109581 100.001)
(-0.00680953 0.0120129 100.001)
(-0.0046612 0.0128974 100.001)
(-0.00211188 0.0134785 100.001)
(0.000614937 0.0136095 100.001)
(0.0033043 0.0133835 100.001)
(0.00566292 0.0128585 100.001)
(0.00761651 0.0119921 100.001)
(0.00909663 0.0110034 100.001)
(0.00992491 0.00981897 100.002)
(0.0100803 0.00865845 100.002)
(0.00964628 0.00754918 100.002)
(0.00866712 0.00655861 100.002)
(0.00722292 0.0057304 100.002)
(0.00541051 0.00509202 100.002)
(0.00333411 0.0046594 100.002)
(0.00112162 0.00444103 100.002)
(-0.000976783 0.00278902 100.002)
(-0.00290847 0.00291604 100.002)
(-0.00471269 0.00317481 100.002)
(-0.00626487 0.00355775 100.002)
(-0.00747895 0.0040542 100.002)
(-0.00826772 0.00464695 100.002)
(-0.00855579 0.00530945 100.002)
(-0.00829155 0.00600573 100.002)
(-0.00746649 0.00669437 100.002)
(-0.00607406 0.00726953 100.002)
(-0.004168 0.00776036 100.001)
(-0.00192213 0.00815002 100.001)
(0.000488816 0.00819926 100.001)
(0.00287684 0.00811391 100.001)
(0.0050307 0.00784895 100.002)
(0.00685242 0.00727572 100.002)
(0.00823144 0.00665949 100.002)
(0.00900101 0.00600904 100.002)
(0.00916832 0.0052972 100.002)
(0.00880331 0.00462701 100.002)
(0.00793541 0.0040284 100.002)
(0.00663143 0.00352633 100.002)
(0.00497753 0.0031379 100.002)
(0.00307027 0.00287345 100.002)
(0.00103293 0.00273878 100.002)
(-0.000936034 0.000943619 100.002)
(-0.00278115 0.000984369 100.002)
(-0.0044978 0.00107094 100.002)
(-0.0059705 0.00119926 100.002)
(-0.00711498 0.00136532 100.002)
(-0.00784873 0.00156323 100.002)
(-0.00810146 0.00178431 100.002)
(-0.00782148 0.00201757 100.002)
(-0.00697836 0.00225439 100.002)
(-0.00566023 0.00242236 100.002)
(-0.00394739 0.00258489 100.002)
(-0.00186465 0.00272632 100.002)
(0.000387146 0.00273404 100.002)
(0.00262066 0.00271632 100.002)
(0.00474139 0.00264454 100.002)
(0.00651036 0.00242701 100.002)
(0.00774662 0.00221915 100.002)
(0.00847928 0.00202552 100.002)
(0.00869829 0.00178076 100.002)
(0.00837748 0.0015555 100.002)
(0.00756644 0.00135493 100.002)
(0.00633242 0.00118653 100.002)
(0.00475763 0.00105592 100.002)
(0.00293499 0.000966623 100.002)
(0.000986948 0.000920639 100.002)
(-0.00094301 -0.00097142 100.006)
(-0.00285768 -0.00102897 100.006)
(-0.00467819 -0.00112211 100.005)
(-0.00622236 -0.00125533 100.005)
(-0.00741682 -0.00142681 100.005)
(-0.00818013 -0.00163136 100.005)
(-0.00844408 -0.00186058 100.005)
(-0.00816368 -0.0021023 100.005)
(-0.00732676 -0.00234049 100.005)
(-0.00596461 -0.00255489 100.005)
(-0.00415516 -0.00272755 100.005)
(-0.00202267 -0.00283956 100.005)
(0.000274676 -0.00287735 100.005)
(0.00255717 -0.00283891 100.005)
(0.00464462 -0.00272751 100.005)
(0.00638027 -0.00255334 100.005)
(0.00766666 -0.00233216 100.005)
(0.00843717 -0.00209065 100.005)
(0.00865283 -0.00184456 100.005)
(0.00833371 -0.00160988 100.005)
(0.00752675 -0.00139981 100.005)
(0.00629956 -0.00122377 100.005)
(0.0047344 -0.00108819 100.006)
(0.00292259 -0.0009975 100.006)
(0.000983424 -0.000956341 100.006)
(-0.00100056 -0.00294243 100.006)
(-0.00300837 -0.00309379 100.005)
(-0.00490455 -0.00336376 100.005)
(-0.00652707 -0.00375628 100.005)
(-0.00779285 -0.00426454 100.005)
(-0.0086139 -0.00487375 100.005)
(-0.00891501 -0.00555955 100.005)
(-0.00864358 -0.00628607 100.005)
(-0.00777935 -0.00700638 100.005)
(-0.00635167 -0.00765662 100.005)
(-0.00443983 -0.00818248 100.004)
(-0.00217248 -0.00852608 100.004)
(0.000275333 -0.00864467 100.004)
(0.00270703 -0.00852931 100.004)
(0.00493019 -0.00818975 100.004)
(0.00677562 -0.00765958 100.005)
(0.00812935 -0.00699472 100.005)
(0.00892477 -0.0062633 100.005)
(0.0091336 -0.00552027 100.005)
(0.00877846 -0.00481479 100.005)
(0.00791286 -0.0041855 100.005)
(0.00661117 -0.00365966 100.005)
(0.00496067 -0.00325508 100.005)
(0.00305444 -0.00298293 100.006)
(0.00102458 -0.00285081 100.006)
(-0.00109437 -0.00481502 100.005)
(-0.00327901 -0.00504263 100.005)
(-0.00534068 -0.00547884 100.005)
(-0.00712315 -0.00612154 100.005)
(-0.00853429 -0.0069591 100.005)
(-0.00947513 -0.00796875 100.005)
(-0.0098564 -0.00911212 100.005)
(-0.00961051 -0.010331 100.005)
(-0.0086973 -0.0115513 100.004)
(-0.0071407 -0.0126583 100.004)
(-0.00502462 -0.0135513 100.004)
(-0.00248486 -0.0141378 100.004)
(0.000271454 -0.0143485 100.004)
(0.0030121 -0.0141473 100.004)
(0.00551436 -0.0135594 100.004)
(0.00757531 -0.0126571 100.004)
(0.00906294 -0.0115392 100.004)
(0.00991162 -0.0103047 100.005)
(0.0101013 -0.00905722 100.005)
(0.00966848 -0.00787984 100.005)
(0.00868188 -0.00683488 100.005)
(0.00722998 -0.00596534 100.005)
(0.00541113 -0.00529799 100.005)
(0.00332686 -0.0048479 100.006)
(0.00111555 -0.00462171 100.006)
(-0.00122818 -0.00640311 100.005)
(-0.00367219 -0.00670863 100.005)
(-0.00598345 -0.00730482 100.005)
(-0.00800733 -0.00818912 100.005)
(-0.00964006 -0.00934777 100.005)
(-0.0107669 -0.0107525 100.005)
(-0.0112773 -0.0123555 100.004)
(-0.0110828 -0.0140764 100.004)
(-0.0101066 -0.0158146 100.004)
(-0.00835161 -0.0174107 100.003)
(-0.00591937 -0.0186974 100.003)
(-0.0029697 -0.01954 100.003)
(0.000265878 -0.0198442 100.002)
(0.00349613 -0.0195387 100.003)
(0.00642044 -0.018675 100.003)
(0.00879587 -0.0173809 100.003)
(0.0104817 -0.0157858 100.004)
(0.0114067 -0.0140365 100.004)
(0.0115584 -0.0122831 100.004)
(0.0110008 -0.010639 100.005)
(0.00982736 -0.00918864 100.005)
(0.00814807 -0.0079881 100.005)
(0.00607811 -0.00707064 100.005)
(0.00373071 -0.00645319 100.005)
(0.00125077 -0.00614266 100.005)
(-0.00139988 -0.00763402 100.005)
(-0.00418072 -0.00801008 100.005)
(-0.00682116 -0.00875154 100.005)
(-0.00916609 -0.00985787 100.005)
(-0.0110977 -0.0113158 100.005)
(-0.0124829 -0.0130949 100.004)
(-0.0131803 -0.0151481 100.004)
(-0.0130696 -0.0173748 100.003)
(-0.0120316 -0.0196388 100.002)
(-0.0100235 -0.0217544 100.002)
(-0.00715387 -0.0234943 100.001)
(-0.00363175 -0.0246118 100.001)
(0.000272758 -0.0249687 100.001)
(0.00418134 -0.0245397 100.001)
(0.00767215 -0.0233898 100.001)
(0.0104645 -0.0216786 100.002)
(0.0124074 -0.0195771 100.002)
(0.0134144 -0.0173051 100.003)
(0.0134988 -0.0150554 100.004)
(0.0127629 -0.0129633 100.004)
(0.0113328 -0.0111315 100.005)
(0.00934798 -0.00962587 100.005)
(0.00694604 -0.0084821 100.005)
(0.00425484 -0.00771574 100.005)
(0.00142608 -0.00733121 100.005)
(-0.00160425 -0.00842976 100.005)
(-0.00478971 -0.00886264 100.005)
(-0.00783125 -0.00972367 100.005)
(-0.0105716 -0.0110175 100.005)
(-0.0128771 -0.0127359 100.004)
(-0.0145992 -0.0148512 100.004)
(-0.0155571 -0.0173285 100.003)
(-0.0155734 -0.0200606 100.002)
(-0.0144863 -0.0228173 100.001)
(-0.0122072 -0.0253777 99.9998)
(-0.00877678 -0.0275024 99.9991)
(-0.00444412 -0.0288946 99.9985)
(0.000337924 -0.0293523 99.9982)
(0.00507512 -0.0288489 99.9984)
(0.00928163 -0.0274654 99.9989)
(0.0126087 -0.0253356 99.9998)
(0.0148553 -0.0227062 100.001)
(0.0159284 -0.0199149 100.002)
(0.0159003 -0.0171954 100.003)
(0.0149247 -0.0146955 100.004)
(0.0131647 -0.0125294 100.004)
(0.0107975 -0.0107651 100.005)
(0.00798825 -0.00943504 100.005)
(0.0048816 -0.008549 100.005)
(0.00163529 -0.00810587 100.005)
(-0.00183277 -0.00872664 100.005)
(-0.00547463 -0.0091952 100.005)
(-0.00897606 -0.0101351 100.005)
(-0.0121783 -0.011561 100.004)
(-0.0149314 -0.013482 100.004)
(-0.0170755 -0.0158827 100.003)
(-0.0183897 -0.0186719 100.002)
(-0.0185585 -0.0217381 100)
(-0.0173487 -0.0248892 99.9989)
(-0.0147086 -0.0278468 99.9973)
(-0.0106709 -0.0302677 99.996)
(-0.00548154 -0.0318898 99.9951)
(0.000318495 -0.0324838 99.9947)
(0.00606831 -0.0319188 99.995)
(0.0111857 -0.0303124 99.9961)
(0.0152239 -0.0278525 99.9975)
(0.0178282 -0.0248458 99.9988)
(0.0189253 -0.0216339 100)
(0.0187182 -0.018496 100.002)
(0.0174288 -0.0156612 100.003)
(0.0152632 -0.0132435 100.004)
(0.0124424 -0.0112972 100.004)
(0.00916213 -0.00984268 100.005)
(0.00558401 -0.00887932 100.005)
(0.00186921 -0.00839914 100.005)
(-0.00207281 -0.00848437 100.005)
(-0.00619816 -0.00896013 100.005)
(-0.0101971 -0.00991961 100.005)
(-0.0139186 -0.0113838 100.004)
(-0.0171988 -0.0133726 100.003)
(-0.0197891 -0.0158828 100.002)
(-0.0214125 -0.0188243 100)
(-0.0217908 -0.0220789 99.9984)
(-0.0205951 -0.0255009 99.9962)
(-0.0175857 -0.0287632 99.9939)
(-0.0128196 -0.0314634 99.9918)
(-0.00666015 -0.0333002 99.9903)
(0.000309003 -0.0339735 99.9898)
(0.00724652 -0.0333158 99.9903)
(0.013348 -0.0314513 99.9919)
(0.0180754 -0.0287249 99.9942)
(0.021074 -0.0254807 99.9965)
(0.0222783 -0.0220236 99.9987)
(0.0218731 -0.0186721 100.001)
(0.0201773 -0.0156728 100.002)
(0.0175288 -0.0131464 100.003)
(0.0141983 -0.0111363 100.004)
(0.0104061 -0.00964325 100.005)
(0.00632515 -0.00865594 100.005)
(0.00211548 -0.00816583 100.005)
(-0.00230854 -0.00769518 100.005)
(-0.00690988 -0.0081487 100.005)
(-0.0113998 -0.00906076 100.004)
(-0.0156313 -0.0104486 100.004)
(-0.0194304 -0.012335 100.002)
(-0.0225273 -0.0147288 100.001)
(-0.0245859 -0.0176166 99.9988)
(-0.025235 -0.0208935 99.9962)
(-0.0240329 -0.0243294 99.9932)
(-0.0206712 -0.0276562 99.99)
(-0.015208 -0.0305539 99.9868)
(-0.00799159 -0.0325669 99.9846)
(0.000303027 -0.0332757 99.9839)
(0.00859071 -0.0325546 99.9848)
(0.0157767 -0.0305062 99.987)
(0.0211946 -0.0275746 99.9902)
(0.0245297 -0.0242276 99.9935)
(0.0257341 -0.0207833 99.9965)
(0.0250691 -0.0175164 99.999)
(0.0229546 -0.0145971 100.001)
(0.0197998 -0.0121519 100.003)
(0.0159455 -0.010218 100.004)
(0.0116425 -0.00879008 100.004)
(0.00706143 -0.00785272 100.005)
(0.00235932 -0.00738993 100.005)
(-0.00252634 -0.00638066 100.005)
(-0.00756375 -0.00676772 100.005)
(-0.012497 -0.00754966 100.004)
(-0.0171928 -0.00874606 100.003)
(-0.0214791 -0.0103804 100.002)
(-0.0250709 -0.012469 99.9999)
(-0.0275773 -0.0150133 99.9973)
(-0.0285036 -0.0179297 99.994)
(-0.0273578 -0.021024 99.99)
(-0.0238102 -0.024154 99.9855)
(-0.0177303 -0.0269507 99.9816)
(-0.00938171 -0.0288781 99.9788)
(0.000321441 -0.0295492 99.9779)
(0.0100161 -0.0288524 99.9789)
(0.0183283 -0.0268949 99.9817)
(0.0243543 -0.0240678 99.9858)
(0.0278655 -0.0209301 99.9902)
(0.0289898 -0.0178219 99.9943)
(0.0280594 -0.0149393 99.9976)
(0.0255419 -0.0123557 100)
(0.0219079 -0.0102066 100.002)
(0.0175601 -0.00852227 100.003)
(0.0127714 -0.00729093 100.004)
(0.00772531 -0.00649119 100.005)
(0.00257826 -0.00609817 100.005)
(-0.00269559 -0.00462515 100.005)
(-0.00807888 -0.00490228 100.004)
(-0.0133782 -0.00547089 100.004)
(-0.0184622 -0.00635359 100.003)
(-0.0231534 -0.00756603 100.001)
(-0.0271603 -0.00911986 99.999)
(-0.0300466 -0.0110235 99.9959)
(-0.0312458 -0.0132379 99.9919)
(-0.0302574 -0.0156383 99.9869)
(-0.0265979 -0.0181401 99.9816)
(-0.0199321 -0.0203433 99.9768)
(-0.01059 -0.0218525 99.9733)
(0.000328964 -0.0223924 99.972)
(0.0112455 -0.0218395 99.9734)
(0.0205617 -0.0203071 99.977)
(0.0271599 -0.0180741 99.9818)
(0.0307757 -0.0155554 99.9872)
(0.0317253 -0.0131269 99.9922)
(0.0305356 -0.01095 99.9963)
(0.0276873 -0.00900198 99.9993)
(0.0236333 -0.00739315 100.001)
(0.0188612 -0.00614413 100.003)
(0.0136736 -0.00523895 100.004)
(0.0082542 -0.00465353 100.005)
(0.00275234 -0.00436724 100.005)
(-0.00280348 -0.00254377 100.005)
(-0.00840952 -0.0026889 100.004)
(-0.0139483 -0.00298765 100.004)
(-0.019288 -0.00345172 100.003)
(-0.0242454 -0.00409296 100.001)
(-0.0285284 -0.00491952 99.9984)
(-0.0316955 -0.00593883 99.9949)
(-0.0331185 -0.00714488 99.9905)
(-0.0322602 -0.00847488 99.9848)
(-0.0285152 -0.00986177 99.9789)
(-0.0214426 -0.0110714 99.9733)
(-0.0114309 -0.0119103 99.9692)
(0.000334744 -0.012214 99.9677)
(0.012102 -0.0118982 99.9694)