/*--------------------------------*- C++ -*----------------------------------*\
| =========                 |                                                 |
| \\      /  F ield         | OpenFOAM: The Open Source CFD Toolbox           |
|  \\    /   O peration     | Version:  2412                                  |
|   \\  /    A nd           | Website:  www.openfoam.com                      |
|    \\/     M anipulation  |                                                 |
\*---------------------------------------------------------------------------*/
FoamFile
{
    version     2.0;
    format      ascii;
    arch        "LSB;label=32;scalar=64";
    class       volVectorField;
    location    "0.002";
    object      U;
}
// * * * * * * * * * * * * * * * * * * * * * * * * * * * * * * * * * * * * * //

dimensions      [0 1 -1 0 0 0 0];

internalField   nonuniform List<vector> 
124215
(
(7.06965e-13 7.06965e-13 -500)
(6.19998e-15 7.13159e-13 -500)
(1.16145e-22 7.13159e-13 -500)
(7.97422e-25 7.13159e-13 -500)
(1.62449e-30 7.13159e-13 -500)
(-3.88266e-30 7.13159e-13 -500)
(-1.48396e-24 7.13159e-13 -500)
(-3.56831e-17 7.13135e-13 -500)
(7.23622e-15 7.12218e-13 -500)
(-1.10266e-13 6.86325e-13 -500)
(-3.70858e-15 6.43626e-13 -500)
(1.1493e-13 6.96843e-13 -500)
(2.43285e-21 7.13159e-13 -500)
(1.28287e-24 7.13159e-13 -500)
(1.14762e-29 7.13159e-13 -500)
(-1.58675e-30 7.13159e-13 -500)
(-7.97419e-25 7.13159e-13 -500)
(-1.16145e-22 7.13159e-13 -500)
(-5.869e-15 7.13159e-13 -500)
(-7.0728e-13 7.06965e-13 -500)
(7.13159e-13 6.20655e-15 -500)
(5.94909e-17 5.94774e-17 -500)
(5.28649e-24 5.9483e-17 -500)
(1.13957e-25 5.94829e-17 -500)
(1.69946e-32 5.94829e-17 -500)
(-6.96553e-30 5.94829e-17 -500)
(-9.40298e-25 5.94829e-17 -500)
(-2.1646e-17 5.9483e-17 -500)
(-2.92092e-14 5.10649e-15 -500)
(-9.00326e-14 6.25739e-14 -500)
(3.68302e-14 4.25334e-14 -500)
(9.75278e-14 1.45537e-14 -500)
(2.15833e-23 5.9483e-17 -500)
(8.73555e-25 5.94829e-17 -500)
(1.35684e-31 5.94829e-17 -500)
(-1.08799e-32 5.94829e-17 -500)
(-1.13957e-25 5.94829e-17 -500)
(-5.2866e-24 5.9483e-17 -500)
(6.00261e-16 5.94774e-17 -500)
(-7.13861e-13 6.20655e-15 -500)
(7.13159e-13 4.35327e-22 -500)
(5.94916e-17 1.43395e-22 -500)
(8.17191e-22 5.94308e-21 -500)
(1.14037e-25 5.94308e-21 -500)
(3.22374e-30 5.94308e-21 -500)
(-6.72939e-31 5.94308e-21 -500)
(9.53702e-26 5.94308e-21 -500)
(2.44056e-15 5.9438e-21 -500)
(7.3173e-14 1.88815e-15 -500)
(-7.33654e-14 4.31932e-14 -500)
(-5.708e-14 7.6124e-14 -500)
(7.1671e-14 3.26243e-15 -500)
(1.13302e-22 5.9421e-21 -500)
(4.69499e-25 5.94308e-21 -500)
(1.53633e-30 5.94308e-21 -500)
(-3.21545e-30 5.94308e-21 -500)
(-1.13997e-25 5.94308e-21 -500)
(-8.17191e-22 5.94308e-21 -500)
(6.00261e-16 1.43395e-22 -500)
(-7.13861e-13 4.35327e-22 -500)
(7.13159e-13 1.81666e-23 -500)
(5.94916e-17 2.71758e-24 -500)
(8.17191e-22 2.72081e-24 -500)
(1.14037e-25 2.72081e-24 -500)
(3.21987e-30 2.72081e-24 -500)
(-2.33751e-30 2.72081e-24 -500)
(-7.39128e-25 2.72078e-24 -500)
(1.04283e-16 -7.73876e-23 -500)
(1.94917e-14 -1.13136e-14 -500)
(-9.40425e-15 -2.46511e-13 -500)
(-5.17951e-15 9.62953e-14 -500)
(8.33658e-15 4.14853e-15 -500)
(1.35197e-22 1.1121e-25 -500)
(1.49733e-24 2.72081e-24 -500)
(1.71912e-30 2.72081e-24 -500)
(-3.21153e-30 2.72081e-24 -500)
(-1.13997e-25 2.72081e-24 -500)
(-8.17191e-22 2.72081e-24 -500)
(6.00261e-16 2.71757e-24 -500)
(-7.13861e-13 1.81666e-23 -500)
(7.13159e-13 1.98702e-29 -500)
(5.94916e-17 4.14753e-30 -500)
(8.17191e-22 2.19598e-28 -500)
(1.14037e-25 2.19148e-28 -500)
(3.21025e-30 2.19536e-28 -500)
(-5.86814e-30 2.19132e-28 -500)
(-3.55705e-24 8.83716e-29 -500)
(-3.93326e-15 -1.88678e-23 -500)
(-2.03627e-13 -1.3535e-14 -500)
(1.19479e-14 -2.66884e-13 -500)
(1.98233e-13 -7.16462e-14 -500)
(-1.97197e-14 -3.25669e-16 -500)
(-3.5609e-20 2.0753e-23 -500)
(9.85899e-25 2.12162e-28 -500)
(1.63209e-31 2.18919e-28 -500)
(-3.21314e-30 2.19317e-28 -500)
(-1.13997e-25 2.1948e-28 -500)
(-8.17191e-22 2.19234e-28 -500)
(6.00261e-16 3.58645e-30 -500)
(-7.13861e-13 2.00122e-29 -500)
(7.13159e-13 -3.44782e-28 -500)
(5.94916e-17 6.74096e-28 -500)
(8.17191e-22 -1.97016e-29 -500)
(1.14037e-25 -3.49115e-28 -500)
(3.21634e-30 -2.1818e-28 -500)
(-8.73755e-30 -1.99004e-28 -500)
(-1.51032e-24 1.39091e-28 -500)
(-7.05562e-15 6.98691e-23 -500)
(-2.50002e-13 2.08547e-16 -500)
(-7.41707e-14 1.19729e-14 -500)
(2.58177e-13 -1.28443e-13 -500)
(6.10129e-14 -6.6311e-15 -500)
(3.17817e-22 -1.5685e-23 -500)
(1.33013e-24 -5.21814e-28 -500)
(3.94932e-30 -3.74725e-28 -500)
(-3.20945e-30 -3.90528e-28 -500)
(-1.13997e-25 -5.25068e-29 -500)
(-8.17191e-22 -1.91625e-28 -500)
(6.00261e-16 -1.03071e-28 -500)
(-7.13861e-13 -3.41087e-28 -500)
(7.13159e-13 -4.52935e-23 -500)
(5.94916e-17 8.66732e-24 -500)
(8.17191e-22 -1.56999e-23 -500)
(1.14032e-25 -3.46784e-23 -500)
(8.78247e-30 -1.68637e-23 -500)
(-8.08445e-30 -3.41463e-23 -500)
(-9.37579e-25 -2.70535e-24 -500)
(-2.98961e-15 -4.73582e-24 -500)
(-1.9396e-13 6.10526e-15 -500)
(-1.19363e-13 1.00011e-13 -500)
(1.9338e-13 -4.54012e-14 -500)
(1.15977e-13 -1.38538e-15 -500)
(1.76426e-21 -2.42411e-24 -500)
(1.04163e-24 -7.68688e-23 -500)
(1.83712e-30 -4.66076e-23 -500)
(-4.31186e-31 -3.59744e-23 -500)
(-1.13998e-25 -1.84127e-23 -500)
(-8.17191e-22 -2.74107e-23 -500)
(6.00261e-16 -2.1194e-23 -500)
(-7.13861e-13 -3.89971e-23 -500)
(7.13159e-13 1.01836e-16 -500)
(5.94925e-17 4.50881e-17 -500)
(1.26833e-21 1.08247e-16 -500)
(-2.7379e-23 4.99375e-17 -500)
(-5.89733e-17 -4.78177e-16 -500)
(-8.90644e-17 4.50461e-16 -500)
(2.58243e-19 9.90599e-16 -500)
(8.29678e-16 1.14939e-16 -500)
(-1.22691e-13 4.05076e-15 -500)
(-1.4553e-13 6.54217e-14 -500)
(1.46011e-13 1.2468e-14 -500)
(1.26642e-13 7.87896e-16 -500)
(7.33788e-22 5.46608e-17 -500)
(-7.50832e-17 -4.80868e-15 -500)
(8.91822e-22 1.41458e-15 -500)
(-1.45171e-17 -9.88365e-16 -500)
(6.50959e-22 7.63757e-16 -500)
(-1.25606e-21 6.0693e-17 -500)
(5.94389e-16 1.07932e-16 -500)
(-7.13861e-13 4.46006e-16 -500)
(7.20799e-13 5.01384e-15 -500)
(-1.04334e-15 1.06972e-13 -500)
(-6.32979e-15 -1.91598e-14 -500)
(-3.08808e-15 1.149e-14 -500)
(-3.87189e-15 -9.11513e-14 -500)
(-5.67492e-15 -6.54719e-14 -500)
(4.29218e-15 -2.31911e-13 -500)
(5.8022e-15 -8.97386e-15 -500)
(-1.59143e-13 -1.14356e-13 -500)
(-9.76611e-14 -1.0048e-14 -500)
(1.49048e-13 1.76388e-13 -500)
(9.53579e-14 -1.99937e-13 -500)
(-5.69099e-15 6.75261e-14 -500)
(-9.19953e-15 -2.92888e-13 -500)
(6.94665e-15 -1.5196e-13 -500)
(-4.52332e-15 -2.08614e-13 -500)
(1.28702e-14 -2.50538e-13 -500)
(8.01875e-15 2.26386e-14 -500)
(-3.30593e-15 -1.67875e-14 -500)
(-7.18622e-13 -9.34982e-14 -500)
(7.84163e-13 -1.72283e-13 -500)
(-1.78612e-15 -1.1067e-14 -500)
(-6.3417e-14 -5.53819e-16 -500)
(-8.46873e-14 2.6589e-14 -500)
(-8.59484e-14 -6.72054e-14 -500)
(-1.16829e-13 -1.88712e-13 -500)
(4.83167e-14 -7.24883e-14 -500)
(1.02563e-13 -4.35029e-14 -500)
(-7.53125e-14 -4.50296e-14 -500)
(1.67085e-13 2.7865e-13 -500)
(-9.08246e-14 2.64499e-15 -500)
(-1.12185e-14 -1.66154e-13 -500)
(-7.11023e-14 -1.73412e-14 -500)
(-2.07892e-13 -8.35185e-14 -500)
(7.61978e-14 1.92502e-13 -500)
(-9.48837e-14 3.47268e-14 -500)
(1.99125e-13 -1.94996e-13 -500)
(2.26056e-13 -7.85699e-14 -500)
(-8.3394e-14 -4.68248e-15 -500)
(-7.62819e-13 -1.41578e-13 -500)
(6.84955e-13 -6.19769e-15 -500)
(1.77395e-13 -6.88503e-14 -500)
(2.60161e-14 2.55635e-14 -500)
(-5.55867e-14 1.18351e-15 -500)
(-2.2725e-13 1.00774e-13 -500)
(1.69762e-14 8.39253e-14 -500)
(1.16179e-13 2.16664e-13 -500)
(2.72937e-14 3.42766e-14 -500)
(1.6083e-13 1.34865e-13 -500)
(-7.62986e-14 -3.73999e-14 -500)
(-2.58644e-13 -8.8608e-14 -500)
(1.09864e-13 1.83907e-13 -500)
(5.34863e-14 -3.09247e-14 -500)
(2.25034e-13 2.73183e-13 -500)
(1.34866e-13 1.638e-13 -500)
(-4.17308e-13 2.00472e-13 -500)
(-7.88761e-14 2.71458e-13 -500)
(1.89387e-13 1.3476e-14 -500)
(-8.72141e-14 2.59871e-14 -500)
(-7.15584e-13 8.85202e-14 -500)
(7.13713e-13 1.89976e-13 -500)
(6.8325e-15 -1.99167e-14 -500)
(-4.15638e-16 -1.56194e-14 -500)
(-1.56619e-15 -5.53217e-14 -500)
(-1.33474e-14 6.39058e-14 -500)
(-2.739e-16 1.83787e-13 -500)
(5.12824e-15 6.67241e-14 -500)
(1.30856e-15 3.35962e-14 -500)
(-1.16905e-13 2.51687e-14 -500)
(-5.1499e-14 -1.31127e-13 -500)
(9.99495e-14 -1.46463e-14 -500)
(4.81474e-14 1.62005e-13 -500)
(2.88944e-15 3.543e-15 -500)
(1.56586e-14 1.0288e-13 -500)
(7.62467e-15 -2.40495e-13 -500)
(-2.31608e-14 -3.79253e-14 -500)
(-5.82481e-15 1.73885e-13 -500)
(1.31575e-14 6.51088e-14 -500)
(-2.76817e-15 -1.7601e-14 -500)
(-7.17655e-13 1.58669e-13 -500)
(7.13159e-13 1.34463e-20 -500)
(5.94916e-17 1.48113e-21 -500)
(8.1642e-22 1.11447e-20 -500)
(6.32668e-26 1.41656e-20 -500)
(1.33316e-24 3.85445e-21 -500)
(1.11968e-24 1.0559e-20 -500)
(-1.71868e-24 1.64321e-21 -500)
(1.13796e-16 4.81716e-22 -500)
(-7.52491e-15 -2.29453e-15 -500)
(-1.30016e-13 -9.38298e-14 -500)
(4.20224e-14 -2.9633e-14 -500)
(1.19346e-13 4.28208e-15 -500)
(2.36199e-21 1.79258e-21 -500)
(6.99326e-25 4.68496e-21 -500)
(-1.68525e-25 -1.74051e-15 -500)
(4.15749e-25 -2.27825e-18 -500)
(1.28321e-24 7.70691e-21 -500)
(-8.16787e-22 9.22395e-21 -500)
(6.00261e-16 2.59164e-21 -500)
(-7.13861e-13 -1.00057e-19 -500)
(7.13159e-13 6.25284e-23 -500)
(5.94916e-17 8.40471e-24 -500)
(8.17191e-22 3.45507e-23 -500)
(1.14047e-25 2.99393e-23 -500)
(1.36948e-29 3.03967e-23 -500)
(-6.82524e-30 5.29927e-24 -500)
(-3.21448e-25 1.17984e-23 -500)
(1.02221e-15 1.99532e-23 -500)
(-2.37351e-13 -6.48017e-15 -500)
(-8.6499e-14 -1.23253e-13 -500)
(2.38157e-13 7.50192e-14 -500)
(5.76981e-14 2.61281e-15 -500)
(-5.86578e-22 2.28676e-23 -500)
(1.13624e-24 3.07959e-23 -500)
(3.98177e-30 2.13425e-23 -500)
(-3.13389e-30 3.06011e-23 -500)
(-1.13997e-25 2.40215e-23 -500)
(-8.17191e-22 6.00342e-24 -500)
(6.00261e-16 8.03942e-24 -500)
(-7.13861e-13 5.69297e-23 -500)
(7.13159e-13 4.91638e-28 -500)
(5.94916e-17 -2.19057e-29 -500)
(8.17191e-22 3.37188e-28 -500)
(1.14037e-25 3.93031e-28 -500)
(3.22579e-30 2.31429e-29 -500)
(-1.01888e-29 2.83384e-28 -500)
(-1.07083e-24 -1.15029e-28 -500)
(-1.55824e-15 -2.14621e-23 -500)
(-1.40207e-13 9.28625e-15 -500)
(-3.97092e-14 1.99428e-13 -500)
(1.50924e-13 1.01948e-13 -500)
(2.68515e-14 6.58756e-15 -500)
(6.20394e-22 1.51861e-23 -500)
(1.45589e-24 7.69824e-29 -500)
(1.48475e-30 -1.72013e-28 -500)
(-3.20994e-30 1.30552e-28 -500)
(-1.13997e-25 7.38599e-29 -500)
(-8.17191e-22 2.34009e-28 -500)
(6.00261e-16 4.60486e-29 -500)
(-7.13861e-13 3.22597e-28 -500)
(7.13159e-13 -1.80765e-29 -500)
(5.94916e-17 -3.56375e-30 -500)
(8.17191e-22 -2.18951e-28 -500)
(1.14037e-25 -2.19062e-28 -500)
(3.2186e-30 -2.18975e-28 -500)
(-1.02034e-29 -2.19504e-28 -500)
(-1.27158e-24 -2.15667e-28 -500)
(1.08238e-16 7.44509e-24 -500)
(-3.4445e-14 3.66786e-15 -500)
(2.40709e-14 1.4391e-13 -500)
(5.15996e-14 1.6656e-13 -500)
(-4.04808e-14 1.10222e-14 -500)
(-3.56197e-20 1.07309e-23 -500)
(4.53039e-25 -1.79099e-28 -500)
(6.74976e-32 -2.19148e-28 -500)
(-3.21487e-30 -2.19017e-28 -500)
(-1.13997e-25 -2.19186e-28 -500)
(-8.17191e-22 -2.19616e-28 -500)
(6.00261e-16 -3.55446e-30 -500)
(-7.13861e-13 -1.81605e-29 -500)
(7.13159e-13 -1.81665e-23 -500)
(5.94916e-17 -2.71756e-24 -500)
(8.17191e-22 -2.72037e-24 -500)
(1.14037e-25 -2.72037e-24 -500)
(3.221e-30 -2.72037e-24 -500)
(-1.01185e-29 -2.72037e-24 -500)
(-4.65969e-25 -2.72033e-24 -500)
(1.05695e-16 1.59378e-23 -500)
(1.01224e-14 9.99503e-17 -500)
(1.32061e-13 1.263e-14 -500)
(2.70207e-15 -6.65521e-14 -500)
(-1.52391e-13 -1.87165e-16 -500)
(-1.38549e-15 -3.88588e-23 -500)
(1.11239e-24 -2.72038e-24 -500)
(1.60133e-31 -2.72037e-24 -500)
(-3.21348e-30 -2.72037e-24 -500)
(-1.13997e-25 -2.72037e-24 -500)
(-8.17191e-22 -2.72037e-24 -500)
(6.00261e-16 -2.71756e-24 -500)
(-7.13861e-13 -1.81665e-23 -500)
(7.13159e-13 -4.35328e-22 -500)
(5.94916e-17 -1.43396e-22 -500)
(8.16174e-22 -5.94308e-21 -500)
(1.14037e-25 -5.94308e-21 -500)
(3.21646e-30 -5.94308e-21 -500)
(-5.77385e-30 -5.94308e-21 -500)
(-5.79581e-25 -5.94308e-21 -500)
(2.26992e-18 -5.94202e-21 -500)
(4.39826e-15 2.66814e-17 -500)
(-5.42185e-14 2.09665e-14 -500)
(2.88855e-14 -2.02856e-13 -500)
(1.96726e-14 -1.02372e-14 -500)
(3.51288e-23 -5.93271e-21 -500)
(1.72019e-24 -5.94308e-21 -500)
(2.97297e-31 -5.94308e-21 -500)
(-3.20593e-30 -5.94308e-21 -500)
(-1.13997e-25 -5.94308e-21 -500)
(-8.16174e-22 -5.94308e-21 -500)
(6.00261e-16 -1.43396e-22 -500)
(-7.13861e-13 -4.35328e-22 -500)
(7.13159e-13 -5.87557e-15 -500)
(5.93873e-17 6.00275e-16 -500)
(5.61949e-24 6.00269e-16 -500)
(1.14106e-25 6.00269e-16 -500)
(1.79222e-32 6.00269e-16 -500)
(-5.56169e-30 6.00269e-16 -500)
(-1.31324e-24 6.00269e-16 -500)
(7.90822e-17 6.00269e-16 -500)
(3.19997e-14 -3.98646e-15 -500)
(-8.30778e-14 -1.65057e-13 -500)
(-1.32799e-14 4.84854e-14 -500)
(8.26007e-14 1.21907e-15 -500)
(1.36355e-21 6.00269e-16 -500)
(1.11241e-24 6.00269e-16 -500)
(5.86963e-30 6.00269e-16 -500)
(-1.45547e-32 6.00269e-16 -500)
(-1.14106e-25 6.00269e-16 -500)
(-5.6196e-24 6.00269e-16 -500)
(6.00365e-16 6.00275e-16 -500)
(-7.13861e-13 -5.87557e-15 -500)
(7.06965e-13 -7.0728e-13 -500)
(6.20654e-15 -7.13861e-13 -500)
(1.16479e-22 -7.13861e-13 -500)
(8.01883e-25 -7.13861e-13 -500)
(1.63027e-30 -7.13861e-13 -500)
(-8.35912e-32 -7.13861e-13 -500)
(-7.90301e-25 -7.13861e-13 -500)
(-3.64274e-15 -7.13861e-13 -500)
(-2.2982e-13 -7.16713e-13 -500)
(4.21736e-14 -7.30849e-13 -500)
(2.10746e-13 -6.85208e-13 -500)
(-4.61888e-14 -7.13522e-13 -500)
(4.34397e-22 -7.13861e-13 -500)
(7.19407e-25 -7.13861e-13 -500)
(4.29739e-30 -7.13861e-13 -500)
(-1.59286e-30 -7.13861e-13 -500)
(-8.01879e-25 -7.13861e-13 -500)
(-1.16479e-22 -7.13861e-13 -500)
(-5.87556e-15 -7.13861e-13 -500)
(-7.0728e-13 -7.0728e-13 -500)
(6.36367e-13 6.36368e-13 -500)
(-8.99333e-17 6.358e-13 -500)
(6.01298e-22 6.358e-13 -500)
(2.85978e-25 6.358e-13 -500)
(8.92736e-30 6.358e-13 -500)
(-2.24239e-29 6.358e-13 -500)
(-3.92592e-25 6.358e-13 -500)
(-1.70771e-15 6.35366e-13 -500)
(-1.32219e-13 6.11327e-13 -500)
(-7.01911e-14 3.94722e-13 -500)
(1.13826e-13 6.21013e-13 -500)
(7.05553e-14 6.3552e-13 -500)
(1.4483e-20 6.358e-13 -500)
(7.84541e-25 6.358e-13 -500)
(6.78882e-29 6.358e-13 -500)
(-8.91793e-30 6.358e-13 -500)
(-2.85962e-25 6.358e-13 -500)
(-6.01298e-22 6.358e-13 -500)
(-1.18452e-15 6.358e-13 -500)
(-6.35084e-13 6.36368e-13 -500)
(6.358e-13 -9.02287e-17 -500)
(2.82537e-16 2.82508e-16 -500)
(6.22489e-24 2.82543e-16 -500)
(2.34594e-25 2.82543e-16 -500)
(2.46376e-32 2.82543e-16 -500)
(-4.13947e-29 2.82543e-16 -500)
(-1.8684e-24 2.82543e-16 -500)
(-2.02101e-15 2.82543e-16 -500)
(-2.64127e-13 1.49557e-14 -500)
(-4.48961e-14 1.13161e-13 -500)
(2.32367e-13 7.04294e-14 -500)
(4.07662e-14 6.09372e-15 -500)
(4.41694e-24 2.82543e-16 -500)
(2.008e-26 2.82543e-16 -500)
(-1.00919e-32 2.82543e-16 -500)
(-1.97798e-32 2.82543e-16 -500)
(-2.34594e-25 2.82543e-16 -500)
(-6.22512e-24 2.82543e-16 -500)
(-1.55699e-15 2.82508e-16 -500)
(-6.34517e-13 -9.02287e-17 -500)
(6.358e-13 5.45019e-22 -500)
(2.82541e-16 1.50722e-22 -500)
(4.87983e-21 3.55719e-20 -500)
(2.35073e-25 3.55719e-20 -500)
(1.92679e-29 3.55719e-20 -500)
(-5.68262e-29 3.55719e-20 -500)
(-1.62525e-24 3.55719e-20 -500)
(2.71794e-17 3.56483e-20 -500)
(4.88195e-16 8.08095e-15 -500)
(1.88839e-14 6.04161e-14 -500)
(1.86502e-14 4.23196e-14 -500)
(-2.12039e-14 5.02175e-15 -500)
(5.93515e-22 3.55726e-20 -500)
(-4.51171e-25 3.55719e-20 -500)
(8.80248e-30 3.55719e-20 -500)
(-1.92615e-29 3.55719e-20 -500)
(-2.34835e-25 3.55719e-20 -500)
(-4.87983e-21 3.55719e-20 -500)
(-1.55699e-15 1.50725e-22 -500)
(-6.34517e-13 5.45019e-22 -500)
(6.358e-13 -4.49799e-24 -500)
(2.82541e-16 1.09807e-23 -500)
(4.87983e-21 1.10004e-23 -500)
(2.35073e-25 1.10004e-23 -500)
(1.92735e-29 1.10004e-23 -500)
(-1.34728e-29 1.10004e-23 -500)
(1.63981e-25 1.10007e-23 -500)
(2.67446e-15 3.66032e-23 -500)
(-1.92568e-13 -8.18877e-15 -500)
(-4.56914e-14 -1.88953e-13 -500)
(2.11469e-13 -2.64378e-13 -500)
(1.84455e-16 -1.31869e-14 -500)
(6.08026e-22 -5.67646e-24 -500)
(3.66385e-25 1.10004e-23 -500)
(8.91459e-30 1.10004e-23 -500)
(-1.92596e-29 1.10004e-23 -500)
(-2.34835e-25 1.10004e-23 -500)
(-4.87983e-21 1.10004e-23 -500)
(-1.55699e-15 1.09807e-23 -500)
(-6.34517e-13 -4.49799e-24 -500)
(6.358e-13 4.03522e-29 -500)
(2.82541e-16 6.69856e-30 -500)
(4.87983e-21 1.32552e-27 -500)
(2.35073e-25 1.32515e-27 -500)
(1.92725e-29 1.3254e-27 -500)
(-3.2761e-29 1.32553e-27 -500)
(-4.13475e-25 5.53196e-28 -500)
(-2.98595e-16 -6.5641e-23 -500)
(-2.42676e-13 4.01172e-15 -500)
(-2.11286e-13 1.00211e-13 -500)
(2.28209e-13 -7.74169e-14 -500)
(2.32418e-13 -5.13358e-15 -500)
(-2.24838e-18 -8.35922e-24 -500)
(-2.95112e-25 1.24228e-27 -500)
(-6.02558e-32 1.32503e-27 -500)
(-1.92624e-29 1.32458e-27 -500)
(-2.34835e-25 1.32583e-27 -500)
(-4.87983e-21 1.32516e-27 -500)
(-1.55699e-15 6.02945e-30 -500)
(-6.34517e-13 4.03624e-29 -500)
(6.358e-13 -1.94998e-27 -500)
(2.82541e-16 -1.75244e-28 -500)
(4.87983e-21 -1.22413e-27 -500)
(2.35073e-25 -2.00591e-27 -500)
(1.92766e-29 -1.70997e-27 -500)
(-5.1691e-29 -1.08613e-27 -500)
(-1.3187e-24 -1.39095e-27 -500)
(7.48056e-17 1.44557e-23 -500)
(-5.75082e-14 5.22725e-15 -500)
(-1.31486e-13 1.05464e-13 -500)
(8.06679e-14 5.99001e-14 -500)
(1.28484e-13 6.49955e-15 -500)
(1.74623e-21 -5.34144e-23 -500)
(9.77756e-25 -3.19871e-27 -500)
(2.25279e-29 -2.13059e-27 -500)
(-1.92547e-29 -2.29953e-27 -500)
(-2.34835e-25 -2.37112e-28 -500)
(-4.87983e-21 -1.505e-27 -500)
(-1.55699e-15 -5.63824e-28 -500)
(-6.34517e-13 -1.9495e-27 -500)
(6.358e-13 -3.98712e-23 -500)
(2.82541e-16 -1.24813e-23 -500)
(4.87983e-21 -1.59813e-23 -500)
(2.35046e-25 -2.6054e-23 -500)
(5.30919e-29 -1.92848e-23 -500)
(-4.79548e-29 -5.5955e-24 -500)
(-5.51852e-25 -2.57767e-23 -500)
(3.1019e-15 2.89424e-23 -500)
(-1.36985e-13 -4.7513e-15 -500)
(-1.32523e-13 -7.94831e-14 -500)
(1.39594e-13 -1.01022e-13 -500)
(1.17586e-13 -6.90929e-15 -500)
(1.40463e-20 -1.01714e-23 -500)
(2.29016e-24 -6.19653e-23 -500)
(6.08815e-29 -3.27267e-23 -500)
(-3.12793e-30 -6.20895e-23 -500)
(-2.34835e-25 3.75669e-24 -500)
(-4.87983e-21 -2.85767e-23 -500)
(-1.55699e-15 -4.1043e-23 -500)
(-6.34517e-13 -3.98479e-23 -500)
(6.358e-13 3.05295e-15 -500)
(2.82547e-16 -2.00239e-16 -500)
(8.1558e-21 3.21656e-15 -500)
(-1.64153e-22 2.13549e-15 -500)
(7.35247e-20 3.20692e-15 -500)
(-1.14526e-20 5.56861e-17 -500)
(-8.42843e-25 6.47551e-16 -500)
(3.2074e-15 3.27322e-15 -500)
(-1.60092e-13 9.94243e-15 -500)
(-2.25254e-13 1.15803e-13 -500)
(1.43329e-13 2.32989e-14 -500)
(2.49599e-13 3.68474e-15 -500)
(4.15254e-21 2.18323e-15 -500)
(-1.12129e-19 3.299e-15 -500)
(5.74726e-21 3.12784e-15 -500)
(2.46707e-20 3.14159e-15 -500)
(4.43423e-21 1.57644e-15 -500)
(-7.86126e-21 2.30859e-15 -500)
(-1.55699e-15 3.20875e-15 -500)
(-6.34517e-13 3.01089e-15 -500)
(6.252e-13 -1.5551e-13 -500)
(6.57438e-16 -2.39919e-13 -500)
(4.18421e-15 -1.00153e-13 -500)
(-1.10323e-15 -1.11246e-13 -500)
(3.4281e-15 -1.20309e-13 -500)
(-3.90762e-15 -4.43586e-14 -500)
(-5.33305e-15 -2.22441e-13 -500)
(1.88958e-15 -1.48793e-13 -500)
(1.95836e-16 -1.53922e-13 -500)
(-1.06752e-13 3.92011e-14 -500)
(2.21349e-14 1.15592e-13 -500)
(1.01548e-13 -9.94994e-14 -500)
(-1.47618e-15 -1.14305e-13 -500)
(-3.62982e-15 -1.69359e-13 -500)
(4.16917e-15 -1.4359e-13 -500)
(-4.18701e-15 -1.10609e-13 -500)
(2.21784e-15 -2.02575e-13 -500)
(2.3404e-15 -8.02318e-14 -500)
(-3.34821e-15 -1.54182e-13 -500)
(-6.27613e-13 -1.50182e-13 -500)
(4.0431e-13 -1.16686e-13 -500)
(6.31295e-14 -8.71939e-14 -500)
(9.33001e-14 -2.13992e-13 -500)
(-2.37539e-14 -2.74672e-13 -500)
(7.74987e-14 -5.08371e-14 -500)
(-1.07192e-13 -2.07869e-13 -500)
(-8.34492e-14 -1.21008e-13 -500)
(4.7824e-14 -1.83317e-13 -500)
(3.02236e-14 -1.07852e-13 -500)
(4.19747e-14 4.70081e-14 -500)
(-1.29934e-15 3.47919e-14 -500)
(-1.94608e-14 -2.50296e-13 -500)
(-3.73187e-14 8.56602e-15 -500)
(-3.91762e-14 -1.01113e-13 -500)
(6.60691e-14 -1.14024e-13 -500)
(-6.76885e-14 -2.55503e-14 -500)
(3.77338e-14 -1.14237e-13 -500)
(5.61173e-14 -1.06891e-13 -500)
(-6.58126e-14 -5.78287e-14 -500)
(-4.74038e-13 -8.65144e-14 -500)
(5.57648e-13 1.42888e-13 -500)
(-9.369e-14 2.09784e-13 -500)
(-1.63801e-13 1.01251e-13 -500)
(1.55975e-13 1.32998e-13 -500)
(6.04597e-14 1.14129e-13 -500)
(-8.04451e-14 6.28124e-14 -500)
(3.04404e-14 2.15952e-13 -500)
(2.83701e-14 1.45742e-13 -500)
(1.8618e-13 1.50656e-13 -500)
(3.28365e-14 5.25584e-15 -500)
(-2.72401e-13 -6.8865e-14 -500)
(1.17074e-13 1.35041e-13 -500)
(1.10264e-13 1.19951e-13 -500)
(-1.31274e-13 1.64345e-13 -500)
(7.18115e-14 1.41091e-13 -500)
(1.98492e-14 1.18437e-13 -500)
(-8.45434e-14 2.04507e-13 -500)
(7.62281e-14 8.43123e-14 -500)
(-4.39161e-15 1.58694e-13 -500)
(-5.98525e-13 1.43327e-13 -500)
(6.29437e-13 1.27416e-13 -500)
(-1.02843e-15 8.88537e-14 -500)
(-9.50871e-15 2.31777e-13 -500)
(7.85833e-15 2.91326e-13 -500)
(4.0842e-15 1.03938e-14 -500)
(-6.00053e-15 2.14304e-13 -500)
(-6.3066e-17 1.1296e-13 -500)
(6.6898e-16 1.74754e-13 -500)
(-9.55903e-14 1.04356e-13 -500)
(-1.59723e-13 -1.84782e-13 -500)
(1.0624e-13 -4.7023e-14 -500)
(1.61076e-13 2.21561e-13 -500)
(4.01075e-15 -4.50765e-14 -500)
(-7.50441e-15 1.14173e-13 -500)
(3.10533e-15 1.31507e-13 -500)
(1.08548e-15 2.72902e-14 -500)
(-4.80089e-15 1.13226e-13 -500)
(2.698e-15 1.08552e-13 -500)
(-1.41091e-15 3.78726e-14 -500)
(-6.3423e-13 9.49226e-14 -500)
(6.358e-13 7.51467e-20 -500)
(2.82541e-16 4.44599e-21 -500)
(4.87856e-21 4.46435e-20 -500)
(3.8817e-24 6.36299e-20 -500)
(4.70398e-25 -3.88729e-22 -500)
(-1.32876e-24 4.68863e-20 -500)
(-1.39295e-24 4.68249e-21 -500)
(3.20662e-15 1.76232e-22 -500)
(-1.65273e-13 5.60425e-15 -500)
(-1.44497e-13 5.1882e-14 -500)
(1.40883e-13 1.72647e-14 -500)
(1.51885e-13 4.7641e-15 -500)
(1.4042e-20 8.30667e-21 -500)
(2.41293e-24 4.67207e-21 -500)
(-1.54782e-24 -3.08853e-23 -500)
(1.24922e-25 -1.07906e-16 -500)
(1.04806e-25 2.45568e-20 -500)
(-4.88149e-21 3.86616e-20 -500)
(-1.55699e-15 1.09362e-20 -500)
(-6.34517e-13 -1.37661e-17 -500)
(6.358e-13 3.51328e-23 -500)
(2.82541e-16 1.58474e-23 -500)
(4.87983e-21 4.88628e-23 -500)
(2.35134e-25 4.57994e-23 -500)
(2.82394e-29 -2.80551e-23 -500)
(-4.20989e-29 2.73468e-23 -500)
(-1.8338e-25 5.32704e-24 -500)
(2.56146e-18 3.17808e-23 -500)
(-4.49398e-14 -1.09741e-15 -500)
(-1.54513e-13 -3.55607e-14 -500)
(7.37631e-14 -4.08877e-14 -500)
(1.41582e-13 -1.55529e-16 -500)
(-4.3917e-20 3.93068e-23 -500)
(-1.61641e-25 1.61005e-24 -500)
(-2.97153e-29 -3.94002e-24 -500)
(-1.92359e-29 1.95678e-23 -500)
(-2.34832e-25 8.26187e-24 -500)
(-4.87983e-21 3.26872e-23 -500)
(-1.55699e-15 1.26169e-23 -500)
(-6.34517e-13 2.56991e-23 -500)
(6.358e-13 2.62795e-27 -500)
(2.82541e-16 2.64119e-28 -500)
(4.87983e-21 1.93722e-27 -500)
(2.35073e-25 2.2949e-27 -500)
(1.92697e-29 -1.66716e-29 -500)
(-6.06401e-29 1.9694e-27 -500)
(-1.87773e-24 -2.76615e-28 -500)
(1.32784e-16 -5.2683e-23 -500)
(-2.02753e-13 -2.65895e-15 -500)
(-1.82273e-13 -6.59321e-14 -500)
(1.93349e-13 -5.0339e-14 -500)
(1.82488e-13 -4.41608e-15 -500)
(3.52635e-21 -5.71932e-24 -500)
(7.63821e-26 2.96506e-28 -500)
(7.55126e-30 -8.12549e-31 -500)
(-1.92607e-29 9.30162e-28 -500)
(-2.34835e-25 3.54925e-28 -500)
(-4.87983e-21 1.67851e-27 -500)
(-1.55699e-15 6.70391e-28 -500)
(-6.34517e-13 1.597e-27 -500)
(6.358e-13 -4.08151e-29 -500)
(2.82541e-16 -5.74865e-30 -500)
(4.87983e-21 -1.32381e-27 -500)
(2.35073e-25 -1.32402e-27 -500)
(1.9267e-29 -1.32552e-27 -500)
(-6.06329e-29 -1.3243e-27 -500)
(-1.96233e-24 -1.32444e-27 -500)
(3.21122e-15 1.28601e-24 -500)
(-1.14204e-13 6.27649e-15 -500)
(-2.15812e-13 8.10453e-14 -500)
(1.2338e-13 4.00896e-14 -500)
(2.28177e-13 3.55335e-15 -500)
(-2.24838e-18 1.17028e-24 -500)
(-1.62504e-25 -1.10987e-27 -500)
(-3.20523e-32 -1.325e-27 -500)
(-1.92619e-29 -1.32445e-27 -500)
(-2.34835e-25 -1.32489e-27 -500)
(-4.87983e-21 -1.32423e-27 -500)
(-1.55699e-15 -5.71744e-30 -500)
(-6.34517e-13 -4.09996e-29 -500)
(6.358e-13 4.498e-24 -500)
(2.82541e-16 -1.09806e-23 -500)
(4.87983e-21 -1.09978e-23 -500)
(2.35073e-25 -1.09978e-23 -500)
(1.92666e-29 -1.09978e-23 -500)
(-6.06396e-29 -1.09978e-23 -500)
(-1.90461e-24 -1.09976e-23 -500)
(3.10219e-15 4.66189e-23 -500)
(-1.32682e-13 3.64315e-15 -500)
(-1.45152e-13 6.71634e-14 -500)
(1.15566e-13 6.6807e-14 -500)
(1.43515e-13 1.90043e-15 -500)
(-9.7202e-22 -2.32429e-23 -500)
(-3.06507e-25 -1.09978e-23 -500)
(-5.82721e-32 -1.09978e-23 -500)
(-1.92625e-29 -1.09978e-23 -500)
(-2.34835e-25 -1.09978e-23 -500)
(-4.87983e-21 -1.09978e-23 -500)
(-1.55699e-15 -1.09806e-23 -500)
(-6.34517e-13 4.498e-24 -500)
(6.358e-13 -5.45028e-22 -500)
(2.82541e-16 -1.50725e-22 -500)
(4.87361e-21 -3.55719e-20 -500)
(2.35073e-25 -3.55719e-20 -500)
(1.9247e-29 -3.55719e-20 -500)
(-3.43827e-29 -3.55719e-20 -500)
(-6.84145e-25 -3.55719e-20 -500)
(1.07301e-16 -3.55931e-20 -500)
(-2.84836e-14 1.78559e-15 -500)
(-1.52268e-13 6.53164e-14 -500)
(5.97451e-14 1.34033e-13 -500)
(1.41459e-13 4.95261e-15 -500)
(2.5773e-23 -3.56037e-20 -500)
(7.89075e-25 -3.55719e-20 -500)
(1.82508e-31 -3.55719e-20 -500)
(-1.92339e-29 -3.55719e-20 -500)
(-2.34835e-25 -3.55719e-20 -500)
(-4.87361e-21 -3.55719e-20 -500)
(-1.55699e-15 -1.50728e-22 -500)
(-6.34517e-13 -5.45028e-22 -500)
(6.358e-13 -1.18422e-15 -500)
(2.81783e-16 -1.55696e-15 -500)
(8.28782e-24 -1.55699e-15 -500)
(2.34941e-25 -1.55699e-15 -500)
(5.50007e-32 -1.55699e-15 -500)
(-3.24155e-29 -1.55699e-15 -500)
(-1.74704e-24 -1.55699e-15 -500)
(2.72009e-15 -1.55699e-15 -500)
(-8.59172e-14 -1.12463e-15 -500)
(-1.53937e-14 1.86177e-14 -500)
(7.45304e-14 5.39828e-14 -500)
(2.52545e-15 1.32094e-15 -500)
(8.0676e-21 -1.55699e-15 -500)
(1.39246e-24 -1.55699e-15 -500)
(3.43338e-29 -1.55699e-15 -500)
(-4.31549e-32 -1.55699e-15 -500)
(-2.34941e-25 -1.55699e-15 -500)
(-8.28804e-24 -1.55699e-15 -500)
(-1.55623e-15 -1.55696e-15 -500)
(-6.34517e-13 -1.18422e-15 -500)
(6.36367e-13 -6.35085e-13 -500)
(-9.02502e-17 -6.34517e-13 -500)
(6.0255e-22 -6.34517e-13 -500)
(2.86265e-25 -6.34517e-13 -500)
(8.94532e-30 -6.34517e-13 -500)
(-2.96346e-32 -6.34517e-13 -500)
(-2.61367e-25 -6.34517e-13 -500)
(7.95081e-21 -6.34517e-13 -500)
(1.43277e-14 -6.3413e-13 -500)
(-5.10743e-14 -6.27306e-13 -500)
(-3.17095e-15 -6.71097e-13 -500)
(6.56258e-14 -6.365e-13 -500)
(2.49566e-21 -6.34517e-13 -500)
(6.38238e-25 -6.34517e-13 -500)
(2.52657e-29 -6.34517e-13 -500)
(-8.9351e-30 -6.34517e-13 -500)
(-2.86249e-25 -6.34517e-13 -500)
(-6.0255e-22 -6.34517e-13 -500)
(-1.1842e-15 -6.34517e-13 -500)
(-6.35084e-13 -6.35085e-13 -500)
(6.39442e-13 6.39442e-13 -500)
(-8.99394e-17 6.39373e-13 -500)
(9.05875e-25 6.39373e-13 -500)
(2.85831e-25 6.39373e-13 -500)
(8.77772e-32 6.39373e-13 -500)
(-7.39663e-32 6.39373e-13 -500)
(-7.74286e-25 6.39373e-13 -500)
(-9.57621e-17 6.39349e-13 -500)
(1.23637e-13 6.32821e-13 -500)
(-1.37665e-13 5.18223e-13 -500)
(-8.58568e-14 4.31034e-13 -500)
(1.38326e-13 6.18479e-13 -500)
(5.15667e-24 6.39373e-13 -500)
(1.934e-25 6.39373e-13 -500)
(2.40201e-32 6.39373e-13 -500)
(-7.98904e-32 6.39373e-13 -500)
(-2.85831e-25 6.39373e-13 -500)
(-9.05874e-25 6.39373e-13 -500)
(-1.20907e-15 6.39373e-13 -500)
(-6.38183e-13 6.39442e-13 -500)
(6.39373e-13 -9.02559e-17 -500)
(2.82541e-16 2.82551e-16 -500)
(6.22487e-24 2.82551e-16 -500)
(2.34605e-25 2.82551e-16 -500)
(3.13842e-32 2.82551e-16 -500)
(-1.84107e-32 2.82551e-16 -500)
(-3.29787e-25 2.82551e-16 -500)
(-9.76091e-16 2.82551e-16 -500)
(-2.30258e-13 -1.85778e-14 -500)
(-1.86403e-13 -3.21853e-13 -500)
(2.26073e-13 -3.55712e-14 -500)
(1.73379e-13 9.01295e-15 -500)
(3.15544e-23 2.82551e-16 -500)
(1.55662e-24 2.82551e-16 -500)
(2.4808e-31 2.82551e-16 -500)
(-1.40131e-32 2.82551e-16 -500)
(-2.34604e-25 2.82551e-16 -500)
(-6.22487e-24 2.82551e-16 -500)
(-1.58155e-15 2.82551e-16 -500)
(-6.38041e-13 -9.02559e-17 -500)
(6.39373e-13 -5.66477e-23 -500)
(2.82541e-16 1.50728e-22 -500)
(6.22514e-24 1.5074e-22 -500)
(2.34604e-25 1.5074e-22 -500)
(2.63964e-32 1.5074e-22 -500)
(-1.79734e-31 1.5074e-22 -500)
(-1.62785e-24 1.5074e-22 -500)
(-6.42947e-16 1.77156e-22 -500)
(-2.55814e-13 5.50922e-15 -500)
(-1.82247e-13 7.34643e-14 -500)
(2.30612e-13 -7.07267e-16 -500)
(1.8552e-13 4.02113e-18 -500)
(1.49521e-23 1.62738e-22 -500)
(6.48433e-25 1.5074e-22 -500)
(1.20046e-31 1.5074e-22 -500)
(-1.61145e-32 1.5074e-22 -500)
(-2.34604e-25 1.5074e-22 -500)
(-6.22514e-24 1.5074e-22 -500)
(-1.58155e-15 1.50728e-22 -500)
(-6.38041e-13 -5.66477e-23 -500)
(6.39373e-13 -4.49968e-24 -500)
(2.82541e-16 1.09822e-23 -500)
(6.22514e-24 1.09822e-23 -500)
(2.34604e-25 1.09822e-23 -500)
(3.00806e-32 1.09822e-23 -500)
(-4.52114e-32 1.09822e-23 -500)
(-4.14391e-25 1.09822e-23 -500)
(3.21197e-15 2.31492e-23 -500)
(-1.32641e-13 9.59944e-15 -500)
(-1.75014e-13 1.56276e-13 -500)
(1.25493e-13 1.41536e-13 -500)
(1.95297e-13 4.51071e-15 -500)
(2.10703e-23 2.22005e-23 -500)
(1.06321e-24 1.09822e-23 -500)
(1.60556e-31 1.09822e-23 -500)
(-1.5956e-32 1.09822e-23 -500)
(-2.34604e-25 1.09822e-23 -500)
(-6.22514e-24 1.09822e-23 -500)
(-1.58155e-15 1.09822e-23 -500)
(-6.38041e-13 -4.49968e-24 -500)
(6.39373e-13 -3.63592e-30 -500)
(2.82541e-16 6.27837e-30 -500)
(6.22514e-24 6.2054e-30 -500)
(2.34604e-25 7.05128e-30 -500)
(2.70244e-32 7.34286e-30 -500)
(-1.58754e-31 7.06761e-30 -500)
(-1.51578e-24 -1.95279e-30 -500)
(1.05721e-16 -3.01381e-23 -500)
(-4.19982e-14 5.46468e-15 -500)
(-5.73408e-14 1.10061e-13 -500)
(6.0431e-14 7.59209e-14 -500)
(4.26694e-14 1.92973e-15 -500)
(-1.05673e-16 1.4062e-23 -500)
(7.81317e-26 1.15821e-29 -500)
(1.31225e-32 6.69758e-30 -500)
(-1.86536e-32 6.11672e-30 -500)
(-2.34604e-25 6.82177e-30 -500)
(-6.22514e-24 6.5559e-30 -500)
(-1.58155e-15 5.64624e-30 -500)
(-6.38041e-13 -3.55445e-30 -500)
(6.39373e-13 -2.44601e-29 -500)
(2.82541e-16 -1.97697e-29 -500)
(6.22514e-24 -2.15783e-29 -500)
(2.34604e-25 9.19682e-31 -500)
(2.5445e-32 9.39247e-30 -500)
(-2.15194e-31 3.7529e-30 -500)
(-1.64074e-24 -2.39657e-30 -500)
(1.05708e-16 3.94736e-23 -500)
(-2.58832e-14 2.88688e-17 -500)
(-1.40749e-13 3.15792e-15 -500)
(4.61321e-14 -1.25779e-13 -500)
(1.26867e-13 -7.4621e-15 -500)
(1.25063e-23 -5.24166e-23 -500)
(4.62954e-25 -3.98054e-29 -500)
(6.08097e-32 -1.04484e-29 -500)
(-1.57754e-32 -2.41818e-29 -500)
(-2.34604e-25 -6.7099e-30 -500)
(-6.22514e-24 -1.23189e-29 -500)
(-1.58155e-15 -3.71924e-29 -500)