/*--------------------------------*- C++ -*----------------------------------*\
| =========                 |                                                 |
| \\      /  F ield         | OpenFOAM: The Open Source CFD Toolbox           |
|  \\    /   O peration     | Version:  2412                                  |
|   \\  /    A nd           | Website:  www.openfoam.com                      |
|    \\/     M anipulation  |                                                 |
\*---------------------------------------------------------------------------*/
FoamFile
{
    version     2.0;
    format      ascii;
    arch        "LSB;label=32;scalar=64";
    class       volVectorField;
    location    "0.013";
    object      U;
}
// * * * * * * * * * * * * * * * * * * * * * * * * * * * * * * * * * * * * * //

dimensions      [0 1 -1 0 0 0 0];

internalField   nonuniform List<vector> 
124215
(
(1.71012e-11 1.71012e-11 -500)
(-7.62174e-14 1.6815e-11 -500)
(-1.94632e-15 1.6856e-11 -500)
(2.66452e-24 1.6856e-11 -500)
(2.11416e-29 1.6856e-11 -500)
(-5.4051e-29 1.6856e-11 -500)
(1.88645e-14 1.6856e-11 -500)
(-1.95539e-13 1.6677e-11 -500)
(-1.10963e-12 1.39716e-11 -500)
(-1.47508e-12 1.11326e-11 -500)
(4.44899e-13 9.62162e-12 -500)
(2.54622e-12 1.25862e-11 -500)
(3.12392e-20 1.6856e-11 -500)
(4.87629e-24 1.6856e-11 -500)
(1.58141e-28 1.6856e-11 -500)
(-2.10308e-29 1.6856e-11 -500)
(-2.66448e-24 1.6856e-11 -500)
(-1.43391e-21 1.6856e-11 -500)
(2.47071e-13 1.68126e-11 -500)
(-1.72751e-11 1.71012e-11 -500)
(1.6815e-11 -7.57512e-14 -500)
(1.73221e-13 1.73221e-13 -500)
(3.99516e-14 1.73221e-13 -500)
(9.92371e-25 1.73221e-13 -500)
(1.22949e-31 1.73221e-13 -500)
(-9.78504e-29 1.73221e-13 -500)
(-6.18625e-24 1.73221e-13 -500)
(-6.16634e-15 1.73156e-13 -500)
(-4.8153e-13 1.96171e-12 -500)
(-3.86668e-13 2.70783e-12 -500)
(1.52003e-13 3.68344e-12 -500)
(4.32091e-13 3.03854e-12 -500)
(9.2061e-23 1.73221e-13 -500)
(3.69348e-24 1.73221e-13 -500)
(5.58245e-31 1.73221e-13 -500)
(-8.03404e-32 1.73221e-13 -500)
(-9.92369e-25 1.73221e-13 -500)
(-4.33705e-14 1.73221e-13 -500)
(2.78308e-15 1.73221e-13 -500)
(-1.69888e-11 -7.57512e-14 -500)
(1.6856e-11 -1.95688e-15 -500)
(1.73221e-13 3.99516e-14 -500)
(-9.87337e-16 -9.87264e-16 -500)
(9.935e-25 -9.87264e-16 -500)
(4.55193e-29 -9.87264e-16 -500)
(-1.13766e-28 -9.87264e-16 -500)
(7.67638e-15 -9.87264e-16 -500)
(-1.74475e-13 -2.83065e-14 -500)
(-1.1102e-12 -3.5368e-13 -500)
(-5.79714e-13 -1.01505e-12 -500)
(1.09191e-12 -2.73047e-13 -500)
(1.8101e-12 2.89896e-14 -500)
(8.05434e-22 -9.87264e-16 -500)
(8.80304e-25 -9.87264e-16 -500)
(2.10572e-29 -9.87264e-16 -500)
(-4.54757e-29 -9.87264e-16 -500)
(-9.92939e-25 -9.87264e-16 -500)
(-1.15295e-20 -9.87264e-16 -500)
(2.64091e-15 4.23932e-14 -500)
(-1.70319e-11 -1.95688e-15 -500)
(1.6856e-11 2.83959e-23 -500)
(1.73221e-13 4.0354e-23 -500)
(-9.87337e-16 4.04005e-23 -500)
(9.935e-25 4.04005e-23 -500)
(4.55236e-29 4.04005e-23 -500)
(-3.21163e-29 4.04005e-23 -500)
(2.28367e-15 4.04009e-23 -500)
(-4.48522e-13 -1.21261e-13 -500)
(-2.45542e-12 -7.40996e-13 -500)
(-6.19968e-13 -1.52684e-12 -500)
(1.88733e-12 -6.61418e-13 -500)
(6.58701e-13 -2.158e-13 -500)
(-8.55039e-16 7.62611e-24 -500)
(5.62652e-24 4.04006e-23 -500)
(2.18011e-29 4.04005e-23 -500)
(-4.54616e-29 4.04005e-23 -500)
(-9.92939e-25 4.04005e-23 -500)
(-1.15295e-20 4.04005e-23 -500)
(2.64091e-15 4.0354e-23 -500)
(-1.70319e-11 2.83959e-23 -500)
(1.6856e-11 1.21882e-28 -500)
(1.73221e-13 3.01124e-29 -500)
(-9.87337e-16 3.13153e-27 -500)
(9.935e-25 3.13027e-27 -500)
(4.54975e-29 3.13199e-27 -500)
(-7.84276e-29 3.131e-27 -500)
(1.68873e-15 1.29691e-27 -500)
(-4.05479e-13 -4.57087e-14 -500)
(-4.18545e-12 -2.38747e-14 -500)
(-1.51968e-12 3.67021e-13 -500)
(2.53466e-12 1.33127e-14 -500)
(2.75692e-12 -2.14235e-13 -500)
(8.52923e-18 5.39474e-23 -500)
(2.19935e-24 2.95827e-27 -500)
(3.45277e-31 3.12933e-27 -500)
(-4.54734e-29 3.1288e-27 -500)
(-9.92939e-25 3.13233e-27 -500)
(-1.15295e-20 3.13015e-27 -500)
(2.64091e-15 2.67904e-29 -500)
(-1.70319e-11 1.22342e-28 -500)
(1.6856e-11 -4.67079e-27 -500)
(1.73221e-13 1.20766e-27 -500)
(-9.87337e-16 -2.47734e-27 -500)
(9.935e-25 -4.77284e-27 -500)
(4.55182e-29 -3.87497e-27 -500)
(-1.22483e-28 -2.60729e-27 -500)
(1.50747e-14 -2.41447e-27 -500)
(-8.11388e-14 2.30472e-22 -500)
(-2.65545e-12 3.09037e-13 -500)
(-7.31446e-13 3.26892e-13 -500)
(1.73178e-12 2.41767e-13 -500)
(1.27305e-12 -1.23839e-13 -500)
(2.28665e-14 -1.76703e-22 -500)
(5.55639e-24 -7.55892e-27 -500)
(5.36795e-29 -5.08431e-27 -500)
(-4.54476e-29 -5.46815e-27 -500)
(-9.92939e-25 -5.97441e-28 -500)
(-1.15295e-20 -3.42707e-27 -500)
(2.64091e-15 -1.38831e-27 -500)
(-1.70319e-11 -4.65903e-27 -500)
(1.6856e-11 1.513e-14 -500)
(1.73221e-13 -3.04404e-23 -500)
(-9.87337e-16 -9.69855e-23 -500)
(9.93434e-25 5.04364e-15 -500)
(1.25462e-28 9.1301e-16 -500)
(-1.15002e-28 -1.27492e-15 -500)
(-1.24206e-16 -6.13654e-23 -500)
(-5.11147e-13 1.04544e-25 -500)
(-3.40942e-12 -2.54856e-14 -500)
(-9.16465e-13 -3.29961e-13 -500)
(2.02819e-12 -1.27897e-12 -500)
(2.20333e-12 -4.40879e-13 -500)
(2.40298e-15 -6.13517e-23 -500)
(8.54969e-24 -3.43519e-22 -500)
(1.2444e-28 -1.88133e-22 -500)
(-8.14857e-30 3.071e-15 -500)
(-9.92917e-25 1.22965e-16 -500)
(-1.15295e-20 3.83559e-15 -500)
(2.64091e-15 -1.93951e-22 -500)
(-1.70319e-11 1.01325e-14 -500)
(1.67145e-11 -1.59948e-13 -500)
(1.73189e-13 2.54157e-15 -500)
(-9.87329e-16 1.09788e-14 -500)
(-3.99149e-14 -2.63642e-13 -500)
(5.77153e-15 -5.04329e-13 -500)
(-1.41757e-14 -2.76843e-13 -500)
(6.01774e-19 4.53217e-15 -500)
(-1.02315e-14 7.64073e-15 -500)
(-3.17121e-12 2.14976e-13 -500)
(-1.71196e-12 8.09048e-13 -500)
(1.80657e-12 -2.462e-13 -500)
(3.81572e-12 -3.18722e-14 -500)
(1.53778e-16 6.45757e-15 -500)
(-1.75186e-16 -3.87307e-15 -500)
(1.34055e-20 5.47931e-15 -500)
(-1.40079e-14 -2.59265e-13 -500)
(1.06976e-13 -9.71081e-13 -500)
(1.29753e-13 -3.14075e-13 -500)
(1.64174e-15 5.97207e-15 -500)
(-1.70253e-11 -8.82077e-14 -500)
(1.38315e-11 -1.37849e-12 -500)
(2.09219e-12 -1.40145e-12 -500)
(-4.27133e-13 -5.73609e-13 -500)
(-4.93149e-13 -2.97442e-12 -500)
(6.55627e-14 -2.46729e-12 -500)
(-1.09191e-13 -2.58758e-12 -500)
(3.02771e-13 -3.49284e-12 -500)
(-2.59577e-13 -3.26137e-13 -500)
(-1.63969e-12 -3.19277e-12 -500)
(-9.11662e-13 -6.17621e-13 -500)
(9.13727e-13 3.4989e-13 -500)
(1.90428e-12 -2.16325e-12 -500)
(1.42675e-13 -8.38836e-13 -500)
(-6.84062e-13 -2.05138e-12 -500)
(-3.75042e-13 -2.82357e-12 -500)
(-3.71963e-13 -3.98059e-12 -500)
(6.31531e-13 -4.59531e-12 -500)
(8.30696e-13 -1.87863e-12 -500)
(-8.84811e-13 -5.70804e-13 -500)
(-1.5102e-11 -3.77095e-12 -500)
(9.55281e-12 -1.87756e-12 -500)
(2.95631e-12 -9.71851e-13 -500)
(-8.92973e-13 -1.99324e-13 -500)
(-1.2247e-12 -9.06801e-13 -500)
(-8.71117e-14 -5.12855e-13 -500)
(-8.20862e-14 -2.13613e-12 -500)
(1.24768e-12 -8.0083e-13 -500)
(-8.7577e-13 -5.84852e-13 -500)
(-1.94835e-12 -3.96125e-13 -500)
(2.18557e-12 4.0237e-13 -500)
(8.71414e-14 -1.02515e-12 -500)
(5.87852e-13 -1.54895e-12 -500)
(8.65669e-13 -1.49348e-12 -500)
(-1.17366e-12 -3.02509e-13 -500)
(-1.42619e-12 -5.72807e-13 -500)
(-1.34107e-12 -1.2754e-12 -500)
(1.18072e-12 -1.51745e-12 -500)
(2.06966e-12 6.017e-14 -500)
(-2.24099e-12 -4.30354e-13 -500)
(-9.66174e-12 -1.0241e-12 -500)
(9.20275e-12 7.42975e-13 -500)
(3.94048e-12 1.01335e-12 -500)
(1.28224e-14 9.13024e-13 -500)
(-1.94143e-13 1.70214e-12 -500)
(-1.14217e-12 1.58199e-12 -500)
(-4.38488e-15 1.96025e-12 -500)
(1.24947e-12 1.77964e-12 -500)
(-1.87531e-13 6.75643e-13 -500)
(-3.75477e-13 2.2008e-12 -500)
(-1.82371e-12 -6.31172e-14 -500)
(-8.17231e-13 9.46578e-14 -500)
(1.39515e-12 1.79017e-12 -500)
(2.12022e-12 1.09336e-12 -500)
(1.02657e-12 1.25858e-12 -500)
(-1.50057e-12 2.01892e-12 -500)
(-1.08951e-12 2.42749e-12 -500)
(1.75066e-12 3.00384e-12 -500)
(9.11116e-13 1.46991e-12 -500)
(-3.7506e-12 7.97014e-13 -500)
(-1.02934e-11 1.89022e-12 -500)
(1.22629e-11 3.50254e-12 -500)
(3.29094e-12 1.66158e-12 -500)
(-2.27215e-14 2.14429e-13 -500)
(5.78027e-14 1.98451e-12 -500)
(-6.46731e-13 1.41614e-13 -500)
(-1.58626e-13 5.02109e-12 -500)
(6.00095e-13 5.51221e-13 -500)
(1.50719e-15 1.567e-12 -500)
(-2.82728e-12 6.87044e-13 -500)
(-1.34985e-12 1.24806e-13 -500)
(1.52016e-12 1.1812e-12 -500)
(1.60028e-12 2.69831e-12 -500)
(6.26845e-13 2.49556e-12 -500)
(4.17476e-13 6.52956e-13 -500)
(-2.32764e-13 3.57844e-13 -500)
(-6.22279e-13 2.94389e-12 -500)
(4.51887e-13 3.20869e-12 -500)
(3.30475e-13 -1.31074e-13 -500)
(-1.10713e-12 1.20441e-12 -500)
(-1.47422e-11 2.50115e-12 -500)
(1.6856e-11 -8.58946e-19 -500)
(1.73221e-13 2.08174e-15 -500)
(-9.87337e-16 5.18047e-16 -500)
(8.27448e-24 -1.66552e-17 -500)
(-2.41819e-15 1.00427e-14 -500)
(-1.67026e-24 1.17464e-19 -500)
(-5.52474e-24 5.41187e-15 -500)
(9.61638e-16 1.01908e-21 -500)
(-1.12284e-12 1.74076e-13 -500)
(-1.50615e-12 3.6847e-13 -500)
(1.18565e-12 1.06127e-12 -500)
(2.27535e-12 3.34591e-13 -500)
(2.53955e-14 5.35549e-21 -500)
(3.22687e-16 2.57887e-14 -500)
(-4.23353e-24 -1.92571e-14 -500)
(1.91086e-24 -2.35044e-15 -500)
(3.9762e-24 -1.31847e-17 -500)
(-1.1531e-20 4.76819e-15 -500)
(2.64091e-15 2.08175e-15 -500)
(-1.70319e-11 -6.15397e-16 -500)
(1.6856e-11 2.14178e-22 -500)
(1.73221e-13 8.5787e-23 -500)
(-9.87337e-16 1.8432e-22 -500)
(9.93644e-25 2.01732e-22 -500)
(8.74897e-29 -3.54847e-24 -500)
(-9.91891e-29 9.99175e-23 -500)
(-1.6001e-24 9.17072e-23 -500)
(2.70774e-15 1.1888e-22 -500)
(-3.48465e-12 -1.42805e-13 -500)
(-3.47382e-13 2.0994e-13 -500)
(1.89111e-12 9.7269e-13 -500)
(9.22762e-13 2.88084e-13 -500)
(2.21413e-14 1.39903e-22 -500)
(2.83861e-24 1.07038e-22 -500)
(-4.9386e-29 8.33998e-23 -500)
(-4.51055e-29 1.23207e-22 -500)
(-9.92931e-25 1.21988e-22 -500)
(-1.15295e-20 9.38744e-23 -500)
(2.64091e-15 6.37472e-23 -500)
(-1.70319e-11 2.09296e-22 -500)
(1.6856e-11 6.32908e-27 -500)
(1.73221e-13 4.94239e-28 -500)
(-9.87337e-16 4.61312e-27 -500)
(9.935e-25 5.46815e-27 -500)
(4.55257e-29 1.31571e-29 -500)
(-1.4342e-28 4.56697e-27 -500)
(1.69195e-14 -7.85655e-28 -500)
(-1.53535e-13 1.52002e-14 -500)
(-1.71162e-12 2.3215e-13 -500)
(-5.6058e-13 8.64162e-13 -500)
(8.74684e-13 -1.74424e-13 -500)
(8.85222e-13 9.52506e-14 -500)
(2.68306e-15 2.55442e-23 -500)
(4.47191e-24 7.84868e-28 -500)
(1.85089e-29 -3.72397e-28 -500)
(-4.54572e-29 2.15212e-27 -500)
(-9.92938e-25 9.04345e-28 -500)
(-1.15295e-20 3.86626e-27 -500)
(2.64091e-15 1.44412e-27 -500)
(-1.70319e-11 3.91941e-27 -500)
(1.6856e-11 -1.19797e-28 -500)
(1.73221e-13 -2.57458e-29 -500)
(-9.87337e-16 -3.12606e-27 -500)
(9.935e-25 -3.12609e-27 -500)
(4.55037e-29 -3.12999e-27 -500)
(-1.43542e-28 -3.12774e-27 -500)
(-9.00295e-24 -3.11694e-27 -500)
(9.68031e-16 3.58963e-16 -500)
(-1.28388e-12 3.24944e-13 -500)
(-7.50947e-13 4.21538e-13 -500)
(1.00076e-12 7.21376e-13 -500)
(1.30551e-12 2.55079e-13 -500)
(-1.44947e-15 1.4495e-23 -500)
(1.86836e-24 -2.61328e-27 -500)
(2.96644e-31 -3.12815e-27 -500)
(-4.54738e-29 -3.12729e-27 -500)
(-9.92939e-25 -3.12799e-27 -500)
(-1.15295e-20 -3.12834e-27 -500)
(2.64091e-15 -2.59966e-29 -500)
(-1.70319e-11 -1.19843e-28 -500)
(1.6856e-11 -2.83958e-23 -500)
(1.73221e-13 -4.03539e-23 -500)
(-9.87337e-16 -4.03942e-23 -500)
(9.935e-25 -4.03942e-23 -500)
(4.55141e-29 -4.03942e-23 -500)
(-1.4316e-28 -4.03942e-23 -500)
(-5.37852e-24 -4.03938e-23 -500)
(9.45031e-15 1.19896e-22 -500)
(-7.87052e-13 2.09422e-13 -500)
(-1.61713e-13 1.27402e-13 -500)
(5.84528e-13 -5.75453e-13 -500)
(-4.72777e-13 -2.31651e-13 -500)
(1.177e-14 -1.7049e-22 -500)
(2.53806e-24 -4.03943e-23 -500)
(3.34839e-31 -4.03942e-23 -500)
(-4.54751e-29 -4.03942e-23 -500)
(-9.92939e-25 -4.03942e-23 -500)
(-1.15295e-20 -4.03942e-23 -500)
(2.64091e-15 -4.03539e-23 -500)
(-1.70319e-11 -2.83958e-23 -500)
(1.6856e-11 -2.02485e-21 -500)
(1.73221e-13 -4.33705e-14 -500)
(-9.87337e-16 -8.41315e-20 -500)
(9.935e-25 -8.41316e-20 -500)
(4.54629e-29 -8.41316e-20 -500)
(-8.13554e-29 -8.41316e-20 -500)
(-3.80936e-24 -8.41316e-20 -500)
(6.2911e-15 7.33564e-16 -500)
(-1.04186e-12 2.64245e-13 -500)
(-1.05279e-12 5.09988e-13 -500)
(7.82816e-13 -9.42179e-13 -500)
(2.12487e-12 -3.06387e-13 -500)
(3.69289e-15 -8.41785e-20 -500)
(7.20686e-24 -8.41316e-20 -500)
(1.32883e-30 -8.41316e-20 -500)
(-4.53965e-29 -8.41316e-20 -500)
(-9.92938e-25 -8.41316e-20 -500)
(-1.15149e-20 -8.41315e-20 -500)
(2.64091e-15 -4.42764e-14 -500)
(-1.70319e-11 -2.02485e-21 -500)
(1.68126e-11 2.46291e-13 -500)
(1.73219e-13 2.78316e-15 -500)
(4.23932e-14 2.64092e-15 -500)
(9.93725e-25 2.64092e-15 -500)
(1.77947e-31 2.64092e-15 -500)
(-7.71112e-29 2.64092e-15 -500)
(-8.65646e-24 2.64092e-15 -500)
(8.99744e-14 -6.31015e-14 -500)
(6.27266e-13 -6.87342e-13 -500)
(-4.75989e-13 -2.03954e-12 -500)
(-3.3076e-14 -1.43721e-12 -500)
(9.14081e-13 -2.53801e-13 -500)
(-2.33447e-17 2.64092e-15 -500)
(6.01571e-24 2.64092e-15 -500)
(8.14507e-29 2.64092e-15 -500)
(-1.39022e-31 2.64092e-15 -500)
(-9.93724e-25 2.64092e-15 -500)
(-4.42764e-14 2.64092e-15 -500)
(2.86779e-15 2.86579e-15 -500)
(-1.69879e-11 2.45993e-13 -500)
(1.71012e-11 -1.72751e-11 -500)
(-7.57512e-14 -1.69888e-11 -500)
(-1.95688e-15 -1.70319e-11 -500)
(2.75534e-24 -1.70319e-11 -500)
(2.1524e-29 -1.70319e-11 -500)
(-5.02391e-31 -1.70319e-11 -500)
(3.15442e-15 -1.70319e-11 -500)
(-7.70168e-13 -1.68274e-11 -500)
(-3.35706e-12 -1.54654e-11 -500)
(-2.32868e-13 -1.21818e-11 -500)
(2.01686e-12 -1.19556e-11 -500)
(8.22063e-13 -1.54174e-11 -500)
(-1.13769e-14 -1.70319e-11 -500)
(4.58373e-24 -1.70319e-11 -500)
(6.00963e-29 -1.70319e-11 -500)
(-2.14076e-29 -1.70319e-11 -500)
(-2.7553e-24 -1.70319e-11 -500)
(-1.46007e-21 -1.70319e-11 -500)
(2.45993e-13 -1.69879e-11 -500)
(-1.72747e-11 -1.72747e-11 -500)
(4.40018e-12 4.40018e-12 -500)
(-6.89379e-14 4.41581e-12 -500)
(-1.03958e-14 4.41403e-12 -500)
(1.55196e-24 4.41403e-12 -500)
(2.10698e-29 4.41403e-12 -500)
(-5.265e-29 4.41403e-12 -500)
(1.53566e-14 4.41403e-12 -500)
(-9.07232e-14 4.39124e-12 -500)
(-1.1133e-12 4.05733e-12 -500)
(-1.13466e-12 3.63833e-12 -500)
(5.59662e-13 3.96915e-12 -500)
(1.47797e-12 4.0774e-12 -500)
(-2.88236e-20 4.41403e-12 -500)
(3.13583e-24 4.41403e-12 -500)
(1.5839e-28 4.41403e-12 -500)
(-2.10267e-29 4.41403e-12 -500)
(-1.55192e-24 4.41403e-12 -500)
(-1.404e-21 4.41403e-12 -500)
(-1.27465e-14 4.41594e-12 -500)
(-4.31528e-12 4.40018e-12 -500)
(4.41581e-12 -6.9558e-14 -500)
(-7.80448e-14 -7.80449e-14 -500)
(-7.72596e-15 -7.80448e-14 -500)
(1.27351e-24 -7.80448e-14 -500)
(1.5266e-31 -7.80448e-14 -500)
(-9.65444e-29 -7.80448e-14 -500)
(-5.11814e-24 -7.80448e-14 -500)
(-3.63546e-15 -7.79968e-14 -500)
(-6.39213e-13 1.5114e-14 -500)
(-4.52829e-13 4.16109e-13 -500)
(2.56719e-13 7.43482e-13 -500)
(5.92509e-13 -2.6111e-14 -500)
(9.84239e-23 -7.80448e-14 -500)
(4.34786e-24 -7.80448e-14 -500)
(6.75262e-31 -7.80448e-14 -500)
(-9.04032e-32 -7.80448e-14 -500)
(-1.27351e-24 -7.80448e-14 -500)
(1.17524e-15 -7.80448e-14 -500)
(4.37273e-15 -7.80449e-14 -500)
(-4.32962e-12 -6.9558e-14 -500)
(4.41403e-12 -1.04297e-14 -500)
(-7.80448e-14 -7.72596e-15 -500)
(-7.67637e-15 -7.6763e-15 -500)
(1.27462e-24 -7.6763e-15 -500)
(4.49824e-29 -7.6763e-15 -500)
(-1.32927e-28 -7.6763e-15 -500)
(-8.23191e-24 -7.6763e-15 -500)
(3.32194e-14 -6.04523e-15 -500)
(-1.02854e-12 -1.74585e-13 -500)
(-8.71769e-13 -9.00543e-13 -500)
(7.21236e-13 -5.39694e-13 -500)
(9.52734e-13 -1.37922e-13 -500)
(-6.18843e-21 -7.6763e-15 -500)
(7.31321e-25 -7.6763e-15 -500)
(2.08487e-29 -7.6763e-15 -500)
(-4.49351e-29 -7.6763e-15 -500)
(-1.27407e-24 -7.6763e-15 -500)
(-1.13907e-20 -7.6763e-15 -500)
(4.37272e-15 -7.94951e-15 -500)
(-4.32781e-12 -1.04297e-14 -500)
(4.41403e-12 -2.44223e-23 -500)
(-7.80448e-14 5.96121e-23 -500)
(-7.67637e-15 5.96581e-23 -500)
(1.27462e-24 5.96581e-23 -500)
(4.49991e-29 5.96581e-23 -500)
(-3.17677e-29 5.96581e-23 -500)
(-2.72626e-24 5.96587e-23 -500)
(1.08424e-13 2.59369e-14 -500)
(-2.0379e-12 -4.86214e-14 -500)
(-1.20306e-12 -6.3547e-13 -500)
(1.63034e-12 -2.10731e-13 -500)
(1.85788e-12 5.96708e-16 -500)
(1.49905e-21 3.04424e-23 -500)
(4.95766e-24 5.96582e-23 -500)
(2.14335e-29 5.96581e-23 -500)
(-4.4926e-29 5.96581e-23 -500)
(-1.27407e-24 5.96581e-23 -500)
(-1.13907e-20 5.96581e-23 -500)
(4.37272e-15 5.96121e-23 -500)
(-4.32781e-12 -2.44222e-23 -500)
(4.41403e-12 8.33122e-29 -500)
(-7.80448e-14 3.566e-29 -500)
(-7.67637e-15 3.10884e-27 -500)
(1.27462e-24 3.10889e-27 -500)
(4.49942e-29 3.11035e-27 -500)
(-7.68344e-29 3.10989e-27 -500)
(-5.58161e-24 1.29345e-27 -500)
(1.45685e-13 1.3985e-14 -500)
(-2.14603e-12 3.28392e-13 -500)
(-1.02209e-12 6.62577e-13 -500)
(1.47691e-12 3.0377e-13 -500)
(1.15679e-12 1.12729e-13 -500)
(3.9951e-16 4.68638e-23 -500)
(1.02492e-24 2.93903e-27 -500)
(1.55617e-31 3.10849e-27 -500)
(-4.4939e-29 3.10587e-27 -500)
(-1.27407e-24 3.11056e-27 -500)
(-1.13907e-20 3.10828e-27 -500)
(4.37272e-15 3.22531e-29 -500)
(-4.32781e-12 8.3654e-29 -500)
(4.41403e-12 -4.60579e-27 -500)
(-7.80448e-14 -4.5353e-28 -500)
(-7.67637e-15 -2.89789e-27 -500)
(1.27462e-24 -4.6968e-27 -500)
(4.49998e-29 -3.98167e-27 -500)
(-1.21101e-28 -2.54563e-27 -500)
(-8.27488e-24 -3.23059e-27 -500)
(4.93684e-14 1.32317e-22 -500)
(-1.86969e-13 4.27036e-13 -500)
(-6.71585e-13 1.67029e-12 -500)
(5.8189e-13 5.27678e-13 -500)
(1.24089e-12 1.35233e-14 -500)
(4.05508e-21 -1.97817e-22 -500)
(3.75814e-24 -7.55298e-27 -500)
(5.27061e-29 -4.9953e-27 -500)
(-4.49173e-29 -5.42686e-27 -500)
(-1.27407e-24 -5.7437e-28 -500)
(-1.13907e-20 -3.54516e-27 -500)
(4.37272e-15 -1.40948e-27 -500)
(-4.32781e-12 -4.59783e-27 -500)
(4.41403e-12 4.15542e-15 -500)
(-7.80448e-14 -9.46401e-23 -500)
(-7.67637e-15 -1.05766e-22 -500)
(1.27456e-24 -8.34259e-23 -500)
(1.23891e-28 -3.89812e-23 -500)
(-1.12488e-28 -2.01947e-23 -500)
(-3.55631e-24 -6.51223e-23 -500)
(1.33602e-13 -4.53044e-23 -500)
(1.1744e-12 -1.4027e-13 -500)
(-3.6019e-13 -1.36235e-13 -500)
(-2.23441e-14 5.19881e-13 -500)
(8.75135e-13 2.77631e-13 -500)
(3.28156e-20 -1.30592e-22 -500)
(9.13827e-24 -2.65402e-22 -500)
(1.42291e-28 -1.1442e-22 -500)
(-7.10108e-30 -2.5851e-22 -500)
(-1.27407e-24 -2.61158e-23 -500)
(-1.13907e-20 -1.24082e-22 -500)
(4.37272e-15 -2.60411e-22 -500)
(-4.32781e-12 6.70872e-17 -500)
(4.38918e-12 -4.50124e-14 -500)
(-7.80332e-14 5.77684e-15 -500)
(-7.67636e-15 1.87742e-14 -500)
(3.54657e-15 7.76596e-14 -500)
(1.71334e-19 1.41481e-13 -500)
(-2.66909e-20 9.77744e-14 -500)
(-8.0924e-24 5.2958e-15 -500)
(1.43834e-14 1.08392e-14 -500)
(-8.8567e-13 -3.5507e-13 -500)
(-2.71666e-13 -9.56234e-13 -500)
(5.34471e-13 -5.21477e-14 -500)
(-2.06792e-13 8.81729e-14 -500)
(1.79794e-15 1.07793e-14 -500)
(-2.61289e-19 1.75288e-14 -500)
(1.33918e-20 1.73327e-14 -500)
(5.74915e-20 9.68918e-14 -500)
(-2.30962e-14 2.37957e-13 -500)
(-2.61805e-14 8.5838e-14 -500)
(4.43096e-15 8.92084e-15 -500)
(-4.32589e-12 -5.44233e-16 -500)
(3.89553e-12 -1.27587e-12 -500)
(1.69868e-13 -1.48407e-12 -500)
(1.05276e-13 -1.00729e-12 -500)
(6.61565e-14 -1.2298e-12 -500)
(2.37878e-13 -8.75195e-13 -500)
(-1.15919e-13 1.74882e-13 -500)
(-1.0407e-13 -1.98974e-12 -500)
(1.5413e-13 -3.87533e-13 -500)
(-6.45495e-13 -3.65251e-14 -500)
(-2.86245e-13 -2.64332e-13 -500)
(6.22494e-13 -2.30815e-13 -500)
(1.64754e-13 -6.0625e-13 -500)
(3.34708e-15 -7.04784e-13 -500)
(4.81555e-14 -1.56133e-12 -500)
(8.7738e-14 -9.17954e-13 -500)
(3.15964e-13 -1.40823e-12 -500)
(8.4411e-14 5.2173e-13 -500)
(-2.8055e-13 4.65877e-13 -500)
(-1.61671e-13 -8.28062e-13 -500)
(-4.11183e-12 1.58009e-13 -500)
(3.64306e-12 -5.58487e-13 -500)
(1.10468e-12 -5.24904e-13 -500)
(2.70557e-13 -1.28496e-12 -500)
(1.54853e-13 -2.30395e-12 -500)
(6.06733e-13 -9.45339e-13 -500)
(-6.20207e-13 -7.05587e-13 -500)
(2.83167e-13 -7.04485e-13 -500)
(7.46131e-13 -1.1981e-12 -500)
(-7.74619e-13 -1.03157e-13 -500)
(-2.96956e-13 -2.47627e-13 -500)
(-1.24095e-14 -9.4239e-13 -500)
(9.02036e-14 -7.866e-13 -500)
(-3.26174e-13 -3.64229e-13 -500)
(-4.10834e-13 -4.72349e-13 -500)
(-1.54038e-13 -7.86623e-13 -500)
(5.35997e-13 -6.2173e-13 -500)
(1.29893e-12 -2.18069e-13 -500)
(-1.82857e-13 1.12936e-13 -500)
(-1.24319e-12 -1.95855e-13 -500)
(-4.38163e-12 5.54658e-13 -500)
(4.78904e-12 7.71971e-13 -500)
(2.12345e-13 8.40134e-13 -500)
(-1.56531e-12 7.99898e-13 -500)
(2.06327e-13 8.78164e-13 -500)
(1.0114e-12 5.80765e-13 -500)
(3.34972e-13 3.7635e-13 -500)
(-2.73938e-13 1.18671e-12 -500)
(4.48244e-13 1.86505e-13 -500)
(2.01986e-13 3.96242e-13 -500)
(-1.19971e-12 3.46781e-13 -500)
(-1.82586e-13 8.17535e-14 -500)
(1.30418e-12 5.60244e-13 -500)
(1.63569e-13 3.85336e-13 -500)
(-5.11208e-13 1.02493e-12 -500)
(5.19884e-14 8.73557e-13 -500)
(6.14947e-13 1.21988e-12 -500)
(6.22777e-13 4.49674e-13 -500)
(-7.90849e-14 1.66751e-13 -500)
(-6.82441e-13 3.29496e-13 -500)
(-5.53107e-12 4.24439e-13 -500)
(4.72861e-12 -9.23136e-14 -500)
(-5.83859e-13 4.47784e-13 -500)
(-5.38672e-13 1.81375e-12 -500)
(1.0639e-13 4.12897e-12 -500)
(4.23681e-13 1.27398e-12 -500)
(6.29262e-14 9.9106e-13 -500)
(-2.7305e-13 7.06815e-13 -500)
(2.52732e-14 2.144e-12 -500)
(-2.50019e-13 3.42494e-15 -500)
(-3.77998e-13 -3.78422e-13 -500)
(4.07414e-13 5.14563e-13 -500)
(4.39063e-13 9.01555e-13 -500)
(1.12001e-13 3.49826e-14 -500)
(-2.41152e-13 7.34884e-13 -500)
(9.35736e-14 1.98031e-12 -500)
(4.00182e-13 6.05604e-13 -500)
(-2.21496e-16 2.48529e-13 -500)
(-1.50518e-13 1.53837e-14 -500)
(2.65073e-13 5.69557e-13 -500)
(-4.47141e-12 -1.47992e-12 -500)
(4.41403e-12 -1.99228e-16 -500)
(-7.80448e-14 1.16152e-20 -500)
(-7.67637e-15 -4.55737e-18 -500)
(1.03518e-23 -4.91444e-17 -500)
(-5.99301e-25 -1.65453e-21 -500)
(-7.50964e-24 1.10453e-19 -500)
(2.67429e-25 6.16047e-21 -500)
(5.18644e-15 -3.11467e-23 -500)
(-2.40135e-12 1.57607e-13 -500)
(-1.02881e-12 2.63616e-13 -500)
(1.43735e-12 1.79258e-13 -500)
(1.04868e-12 -1.34197e-14 -500)
(3.27075e-20 3.59195e-19 -500)
(4.2105e-24 1.22053e-20 -500)
(-5.76908e-24 -2.31405e-22 -500)
(1.94885e-24 -3.71175e-15 -500)
(2.25457e-24 -1.26444e-16 -500)
(-1.13923e-20 9.06182e-20 -500)
(4.37272e-15 2.6355e-20 -500)
(-4.32781e-12 -2.23443e-16 -500)
(4.41403e-12 8.94404e-23 -500)
(-7.80448e-14 1.31945e-22 -500)
(-7.67637e-15 1.3216e-22 -500)
(1.27477e-24 2.12617e-22 -500)
(6.56017e-29 -1.089e-22 -500)
(-9.89485e-29 1.53163e-22 -500)
(-1.93636e-24 1.54214e-22 -500)
(3.06985e-15 1.00909e-22 -500)
(2.50517e-13 2.16726e-13 -500)
(-3.04112e-13 7.24642e-13 -500)
(5.84243e-13 1.58762e-13 -500)
(3.80137e-13 -1.05097e-13 -500)
(-2.083e-16 1.14388e-22 -500)
(7.77613e-25 9.25827e-23 -500)
(-6.95258e-29 9.32697e-23 -500)
(-4.45635e-29 8.86385e-23 -500)
(-1.27406e-24 1.49014e-22 -500)
(-1.13907e-20 1.15091e-22 -500)
(4.37272e-15 8.12676e-23 -500)
(-4.32781e-12 1.26759e-22 -500)
(4.41403e-12 6.13985e-27 -500)
(-7.80448e-14 6.82267e-28 -500)
(-7.67637e-15 4.53756e-27 -500)
(1.27462e-24 5.42268e-27 -500)
(4.49824e-29 -5.50801e-29 -500)
(-1.41705e-28 4.65596e-27 -500)
(-7.23688e-24 -5.70919e-28 -500)
(5.9631e-14 -1.96678e-22 -500)
(-7.48917e-13 -2.87596e-13 -500)
(-8.53714e-13 -6.37187e-13 -500)
(8.84141e-13 -4.32578e-13 -500)
(1.76035e-12 -4.69736e-14 -500)
(-2.98379e-15 -2.16763e-23 -500)
(3.01811e-24 7.44757e-28 -500)
(1.80907e-29 7.34041e-29 -500)
(-4.49223e-29 2.21084e-27 -500)
(-1.27407e-24 9.12206e-28 -500)
(-1.13907e-20 3.94479e-27 -500)
(4.37272e-15 1.60257e-27 -500)
(-4.32781e-12 3.77375e-27 -500)
(4.41403e-12 -8.72996e-29 -500)
(-7.80448e-14 -3.02274e-29 -500)
(-7.67637e-15 -3.10303e-27 -500)
(1.27462e-24 -3.10188e-27 -500)
(4.49751e-29 -3.10819e-27 -500)
(-1.41978e-28 -3.10263e-27 -500)
(-1.0441e-23 -3.09891e-27 -500)
(1.30458e-14 -5.39556e-24 -500)
(-2.04899e-12 1.30733e-15 -500)
(-9.58443e-13 1.80167e-13 -500)
(1.26701e-12 5.10022e-14 -500)
(1.27204e-12 -3.77771e-14 -500)
(-1.04713e-14 -1.99528e-23 -500)
(2.775e-24 -2.60447e-27 -500)
(4.86179e-31 -3.10402e-27 -500)
(-4.49319e-29 -3.10386e-27 -500)
(-1.27407e-24 -3.10363e-27 -500)
(-1.13907e-20 -3.10372e-27 -500)
(4.37272e-15 -3.10951e-29 -500)
(-4.32781e-12 -8.65762e-29 -500)
(4.41403e-12 2.44223e-23 -500)
(-7.80448e-14 -5.9612e-23 -500)
(-7.67637e-15 -5.96519e-23 -500)
(1.27462e-24 -5.96519e-23 -500)
(4.49894e-29 -5.96519e-23 -500)
(-1.41457e-28 -5.96519e-23 -500)
(-5.82336e-24 -5.96515e-23 -500)
(1.01157e-14 9.08342e-23 -500)
(-8.43063e-13 1.70921e-14 -500)
(-9.90001e-13 3.50222e-13 -500)
(7.70427e-13 -7.52015e-14 -500)
(1.88113e-12 -4.03907e-14 -500)
(-3.00955e-15 -1.44764e-22 -500)
(6.49444e-25 -5.9652e-23 -500)
(5.41806e-32 -5.96519e-23 -500)
(-4.49426e-29 -5.96519e-23 -500)
(-1.27407e-24 -5.96519e-23 -500)
(-1.13907e-20 -5.96519e-23 -500)
(4.37272e-15 -5.9612e-23 -500)
(-4.32781e-12 2.44223e-23 -500)
(4.41403e-12 -1.0946e-21 -500)
(-7.80448e-14 1.17524e-15 -500)
(-7.67637e-15 -8.33595e-20 -500)
(1.27462e-24 -8.33596e-20 -500)
(4.49379e-29 -8.33596e-20 -500)
(-8.0485e-29 -8.33596e-20 -500)
(-4.66207e-24 -8.33596e-20 -500)
(1.78841e-14 -8.35489e-20 -500)
(-1.69717e-12 -1.85328e-13 -500)
(-1.08012e-12 -4.79335e-13 -500)
(1.13791e-12 -3.63967e-13 -500)
(1.32768e-12 4.04088e-14 -500)
(-6.04615e-17 -8.34576e-20 -500)
(6.18355e-24 -8.33596e-20 -500)
(1.15149e-30 -8.33596e-20 -500)
(-4.48641e-29 -8.33596e-20 -500)
(-1.27407e-24 -8.33596e-20 -500)
(-1.13762e-20 -8.33595e-20 -500)
(4.37272e-15 1.22573e-15 -500)
(-4.32781e-12 -1.0946e-21 -500)
(4.41594e-12 -1.26095e-14 -500)
(-7.80473e-14 4.37278e-15 -500)
(-7.94951e-15 4.3727e-15 -500)
(1.27521e-24 4.3727e-15 -500)
(2.059e-31 4.3727e-15 -500)
(-7.61952e-29 4.3727e-15 -500)
(-9.43363e-24 4.3727e-15 -500)
(-8.85682e-15 1.65544e-14 -500)
(-1.73566e-12 1.38422e-13 -500)
(-1.05995e-12 -7.33761e-14 -500)
(5.70564e-13 -7.69854e-13 -500)
(1.67374e-12 -1.53891e-13 -500)
(-9.91854e-17 4.3727e-15 -500)
(4.8643e-24 4.3727e-15 -500)
(8.02419e-29 4.3727e-15 -500)
(-1.56448e-31 4.3727e-15 -500)
(-1.2752e-24 4.3727e-15 -500)
(1.22573e-15 4.3727e-15 -500)
(4.37547e-15 4.37278e-15 -500)
(-4.32975e-12 -1.25318e-14 -500)
(4.40018e-12 -4.31528e-12 -500)
(-6.95581e-14 -4.32962e-12 -500)
(-1.04297e-14 -4.32781e-12 -500)
(1.55351e-24 -4.32781e-12 -500)
(2.11029e-29 -4.32781e-12 -500)
(-7.43266e-31 -4.32781e-12 -500)
(1.04421e-16 -4.32781e-12 -500)
(1.49439e-13 -4.3001e-12 -500)
(3.37536e-13 -4.06054e-12 -500)
(-6.98599e-13 -4.36459e-12 -500)
(3.50401e-13 -4.0241e-12 -500)
(1.31561e-12 -4.06637e-12 -500)
(-8.85422e-17 -4.32781e-12 -500)
(6.02693e-24 -4.32781e-12 -500)
(5.96485e-29 -4.32781e-12 -500)
(-2.10544e-29 -4.32781e-12 -500)
(-1.55347e-24 -4.32781e-12 -500)
(-1.4069e-21 -4.32781e-12 -500)
(-1.25317e-14 -4.32975e-12 -500)
(-4.3153e-12 -4.3153e-12 -500)
(7.72162e-12 7.72162e-12 -500)
(3.6465e-14 7.72311e-12 -500)
(4.91725e-24 7.72313e-12 -500)
(1.55161e-24 7.72313e-12 -500)
(4.61429e-31 7.72313e-12 -500)
(-8.66359e-31 7.72313e-12 -500)
(5.18597e-15 7.72313e-12 -500)
(1.77097e-15 7.7158e-12 -500)
(1.13324e-13 6.97546e-12 -500)
(-1.25384e-12 5.39261e-12 -500)
(4.27647e-14 4.08381e-12 -500)
(2.00988e-12 5.15154e-12 -500)
(-1.23368e-18 7.72313e-12 -500)
(3.08574e-24 7.72313e-12 -500)
(4.70809e-31 7.72313e-12 -500)
(-4.2735e-31 7.72313e-12 -500)
(-1.55161e-24 7.72313e-12 -500)
(-4.91725e-24 7.72313e-12 -500)
(-7.14862e-15 7.72311e-12 -500)
(-7.74609e-12 7.72162e-12 -500)
(7.72311e-12 3.64633e-14 -500)
(3.68104e-14 3.68104e-14 -500)
(3.37912e-23 3.68104e-14 -500)
(1.27353e-24 3.68104e-14 -500)
(1.66178e-31 3.68104e-14 -500)
(-1.39034e-31 3.68104e-14 -500)
(-9.44068e-25 3.68104e-14 -500)
(-3.43385e-15 3.68104e-14 -500)
(-1.10369e-12 -1.28084e-13 -500)
(-6.86838e-13 2.10553e-13 -500)
(6.16728e-13 1.04671e-12 -500)
(1.19692e-12 1.43974e-12 -500)
(1.43375e-22 3.68104e-14 -500)
(7.03637e-24 3.68104e-14 -500)
(1.14844e-30 3.68104e-14 -500)
(-7.89364e-32 3.68104e-14 -500)
(-1.27353e-24 3.68104e-14 -500)
(-3.37912e-23 3.68104e-14 -500)
(-9.23789e-15 3.68104e-14 -500)
(-7.74766e-12 3.64633e-14 -500)
(7.72313e-12 -3.07508e-22 -500)
(3.68104e-14 8.18205e-22 -500)
(3.37919e-23 8.18231e-22 -500)
(1.27353e-24 8.18231e-22 -500)
(1.47696e-31 8.18231e-22 -500)
(-7.81958e-31 8.18231e-22 -500)
(-6.74544e-24 8.18231e-22 -500)
(4.46385e-15 7.47216e-22 -500)
(-1.59254e-12 -1.1933e-13 -500)
(-1.0295e-12 -1.41453e-13 -500)
(8.192e-13 -7.07231e-13 -500)
(1.64671e-12 -6.48157e-14 -500)
(-8.10369e-20 8.5504e-22 -500)
(2.8729e-24 8.18231e-22 -500)
(5.38944e-31 8.18231e-22 -500)
(-8.9589e-32 8.18231e-22 -500)
(-1.27353e-24 8.18231e-22 -500)
(-3.37919e-23 8.18231e-22 -500)
(-9.23789e-15 8.18205e-22 -500)
(-7.74768e-12 -3.07508e-22 -500)
(7.72313e-12 -2.44262e-23 -500)
(3.68104e-14 5.96151e-23 -500)
(3.37919e-23 5.96151e-23 -500)
(1.27353e-24 5.96151e-23 -500)
(1.46152e-31 5.96151e-23 -500)
(-8.29329e-31 5.96151e-23 -500)
(-6.85781e-24 5.96151e-23 -500)
(-1.21218e-14 3.34107e-23 -500)
(-1.13336e-12 9.39831e-14 -500)
(-1.34164e-12 1.75788e-14 -500)
(7.34814e-13 3.00989e-13 -500)
(2.33095e-12 3.08148e-13 -500)
(1.57649e-22 5.15287e-23 -500)
(7.85789e-24 5.96151e-23 -500)
(1.29517e-30 5.96151e-23 -500)
(-7.66191e-32 5.96151e-23 -500)
(-1.27353e-24 5.96151e-23 -500)
(-3.37919e-23 5.96151e-23 -500)
(-9.23789e-15 5.96151e-23 -500)
(-7.74768e-12 -2.44262e-23 -500)
(7.72313e-12 -1.8257e-29 -500)
(3.68104e-14 3.55253e-29 -500)
(3.37919e-23 3.57934e-29 -500)
(1.27353e-24 3.57406e-29 -500)
(1.4785e-31 3.7206e-29 -500)
(-8.28546e-31 3.61131e-29 -500)
(-7.75275e-24 1.60955e-29 -500)
(-2.02087e-14 -7.90179e-23 -500)
(-6.52599e-13 2.10049e-13 -500)
(-7.2394e-13 3.33755e-13 -500)
(6.69396e-13 7.80885e-13 -500)
(4.08859e-13 2.13532e-13 -500)
(1.89049e-15 1.33537e-22 -500)
(4.22722e-24 8.33217e-29 -500)
(7.27725e-31 3.67475e-29 -500)
(-8.69296e-32 3.40707e-29 -500)
(-1.27353e-24 3.66199e-29 -500)
(-3.37919e-23 3.57484e-29 -500)
(-9.23789e-15 3.26031e-29 -500)
(-7.74768e-12 -1.76262e-29 -500)
(7.72313e-12 -9.47604e-29 -500)
(3.68104e-14 -6.86755e-29 -500)
(3.37919e-23 -5.89596e-29 -500)
(1.27353e-24 -6.32278e-29 -500)
(1.42467e-31 -2.12108e-29 -500)
(-1.0754e-30 -4.88045e-29 -500)
(-8.99314e-24 2.00263e-29 -500)
(-1.42758e-14 1.35025e-22 -500)
(-7.32381e-13 -4.50449e-14 -500)
(-5.72281e-13 2.74549e-13 -500)
(5.21512e-13 2.98431e-13 -500)
(1.0756e-12 -4.56483e-14 -500)
(-6.14427e-22 -5.78386e-23 -500)
(2.71835e-24 -1.54564e-28 -500)
(3.97604e-31 -4.44689e-29 -500)
(-8.81996e-32 -1.09289e-28 -500)
(-1.27353e-24 -4.13135e-29 -500)