/*--------------------------------*- C++ -*----------------------------------*\
| =========                 |                                                 |
| \\      /  F ield         | OpenFOAM: The Open Source CFD Toolbox           |
|  \\    /   O peration     | Version:  2412                                  |
|   \\  /    A nd           | Website:  www.openfoam.com                      |
|    \\/     M anipulation  |                                                 |
\*---------------------------------------------------------------------------*/
FoamFile
{
    version     2.0;
    format      ascii;
    arch        "LSB;label=32;scalar=64";
    class       volVectorField;
    location    "0.015";
    object      U;
}
// * * * * * * * * * * * * * * * * * * * * * * * * * * * * * * * * * * * * * //

dimensions      [0 1 -1 0 0 0 0];

internalField   nonuniform List<vector> 
124215
(
(2.17969e-11 2.17969e-11 -500)
(-5.53889e-13 2.08613e-11 -500)
(-4.62427e-15 2.10658e-11 -500)
(3.4084e-24 2.10658e-11 -500)
(2.84427e-29 2.10658e-11 -500)
(-7.24944e-29 2.10658e-11 -500)
(1.87951e-14 2.10658e-11 -500)
(-2.34216e-13 2.08532e-11 -500)
(-1.32169e-12 1.71374e-11 -500)
(-1.62146e-12 1.29071e-11 -500)
(4.17789e-13 1.13876e-11 -500)
(2.97564e-12 1.48696e-11 -500)
(-3.84951e-15 2.10658e-11 -500)
(6.29568e-24 2.10658e-11 -500)
(2.12852e-28 2.10658e-11 -500)
(-2.83052e-29 2.10658e-11 -500)
(-3.40835e-24 2.10658e-11 -500)
(2.81894e-17 2.10658e-11 -500)
(7.38324e-13 2.08555e-11 -500)
(-2.19839e-11 2.17969e-11 -500)
(2.08613e-11 -5.53423e-13 -500)
(1.87865e-13 1.87864e-13 -500)
(2.01771e-13 1.87865e-13 -500)
(1.40424e-24 1.87865e-13 -500)
(1.73181e-31 1.87865e-13 -500)
(-1.31438e-28 1.87865e-13 -500)
(-8.14573e-24 1.87865e-13 -500)
(-8.01588e-15 1.878e-13 -500)
(-3.90781e-13 2.41376e-12 -500)
(-4.50109e-13 3.38596e-12 -500)
(5.61328e-14 4.87868e-12 -500)
(5.04473e-13 4.291e-12 -500)
(1.27042e-22 1.87865e-13 -500)
(5.18873e-24 1.87865e-13 -500)
(7.88709e-31 1.87865e-13 -500)
(-1.11059e-31 1.87865e-13 -500)
(2.62357e-15 1.87865e-13 -500)
(-2.10457e-13 1.87865e-13 -500)
(1.89006e-15 1.87864e-13 -500)
(-2.10454e-11 -5.53423e-13 -500)
(2.10658e-11 -4.6718e-15 -500)
(1.87865e-13 2.01771e-13 -500)
(-2.95768e-15 -2.95759e-15 -500)
(1.40576e-24 -2.95759e-15 -500)
(6.11582e-29 -2.95759e-15 -500)
(-1.56535e-28 -2.95759e-15 -500)
(3.4291e-15 -2.95759e-15 -500)
(-2.69482e-13 -6.60951e-14 -500)
(-1.41923e-12 -5.07865e-13 -500)
(-6.27143e-13 -1.08031e-12 -500)
(1.33149e-12 -4.54274e-13 -500)
(2.15039e-12 -4.95964e-14 -500)
(-5.19677e-21 -2.95759e-15 -500)
(1.19926e-24 -2.95759e-15 -500)
(2.83056e-29 -2.95759e-15 -500)
(-6.1098e-29 -2.95759e-15 -500)
(-1.405e-24 -2.95759e-15 -500)
(-1.54901e-20 -2.95759e-15 -500)
(3.36324e-15 2.0764e-13 -500)
(-2.12544e-11 -4.6718e-15 -500)
(2.10658e-11 2.83833e-23 -500)
(1.87865e-13 5.86193e-23 -500)
(-2.95768e-15 5.86818e-23 -500)
(1.40576e-24 5.86818e-23 -500)
(6.11661e-29 5.86818e-23 -500)
(-4.31664e-29 5.86818e-23 -500)
(4.24046e-16 5.86824e-23 -500)
(-6.58941e-13 -1.89365e-13 -500)
(-3.00789e-12 -9.30326e-13 -500)
(-9.4202e-13 -1.64998e-12 -500)
(2.17837e-12 -7.7609e-13 -500)
(1.18973e-12 -3.11489e-13 -500)
(-9.97212e-16 1.50709e-23 -500)
(7.56564e-24 5.86819e-23 -500)
(2.92892e-29 5.86818e-23 -500)
(-6.10797e-29 5.86818e-23 -500)
(-1.405e-24 5.86818e-23 -500)
(-1.54901e-20 5.86818e-23 -500)
(3.36324e-15 5.86193e-23 -500)
(-2.12544e-11 2.83833e-23 -500)
(2.10658e-11 1.56826e-28 -500)
(1.87865e-13 4.20302e-29 -500)
(-2.95768e-15 4.21035e-27 -500)
(1.40576e-24 4.20888e-27 -500)
(6.11348e-29 4.21116e-27 -500)
(-1.05261e-28 4.20992e-27 -500)
(1.96952e-15 1.74478e-27 -500)
(-4.43749e-13 -4.53084e-14 -500)
(-5.17439e-12 1.02793e-13 -500)
(-1.78961e-12 6.62756e-13 -500)
(2.76659e-12 4.40612e-13 -500)
(3.4583e-12 -1.8664e-13 -500)
(1.10014e-16 7.32707e-23 -500)
(2.81144e-24 3.97851e-27 -500)
(4.4136e-31 4.20773e-27 -500)
(-6.10959e-29 4.2066e-27 -500)
(-1.405e-24 4.21159e-27 -500)
(-1.54901e-20 4.20863e-27 -500)
(3.36324e-15 3.75032e-29 -500)
(-2.12544e-11 1.57434e-28 -500)
(2.10658e-11 -6.27487e-27 -500)
(1.87865e-13 1.32614e-27 -500)
(-2.95768e-15 -3.40985e-27 -500)
(1.40576e-24 -6.4098e-27 -500)
(6.116e-29 -5.23377e-27 -500)
(-1.64585e-28 -3.49813e-27 -500)
(2.25479e-14 -3.3951e-27 -500)
(-9.06466e-14 2.94406e-22 -500)
(-2.80231e-12 4.438e-13 -500)
(-6.79371e-13 5.22296e-13 -500)
(1.79373e-12 4.73184e-13 -500)
(1.28799e-12 -6.45048e-14 -500)
(2.66686e-14 -2.42327e-22 -500)
(7.19411e-24 -1.01727e-26 -500)
(7.20641e-29 -6.82627e-27 -500)
(-6.1062e-29 -7.35227e-27 -500)
(-1.405e-24 -8.00407e-28 -500)
(-1.54901e-20 -4.63364e-27 -500)
(3.36324e-15 -1.87406e-27 -500)
(-2.12544e-11 -6.2595e-27 -500)
(2.10658e-11 2.0928e-14 -500)
(1.87865e-13 -5.38991e-23 -500)
(-2.95768e-15 -1.33213e-22 -500)
(1.40567e-24 2.92663e-15 -500)
(1.69695e-28 -6.7776e-16 -500)
(-1.55396e-28 -2.00398e-15 -500)
(-1.24956e-15 -8.32099e-23 -500)
(-7.32691e-13 -2.3836e-15 -500)
(-3.87283e-12 -9.11832e-14 -500)
(-8.63233e-13 -4.12824e-13 -500)
(2.20327e-12 -1.36981e-12 -500)
(2.48474e-12 -5.84043e-13 -500)
(2.80255e-15 -9.82135e-23 -500)
(1.1679e-23 -4.51537e-22 -500)
(1.70663e-28 -2.40635e-22 -500)
(-1.18625e-29 1.20804e-16 -500)
(-1.40494e-24 2.25366e-15 -500)
(-1.54901e-20 4.47335e-15 -500)
(3.36324e-15 -2.7652e-22 -500)
(-2.12544e-11 1.68075e-14 -500)
(2.08927e-11 -1.99869e-13 -500)
(1.87833e-13 2.97058e-15 -500)
(-2.95767e-15 1.67812e-14 -500)
(-4.96367e-14 -3.16328e-13 -500)
(1.1979e-14 -7.12881e-13 -500)
(-1.65327e-14 -3.03146e-13 -500)
(7.01833e-19 6.91038e-15 -500)
(-9.65743e-15 1.01735e-14 -500)
(-3.72118e-12 2.59723e-13 -500)
(-1.67675e-12 7.66671e-13 -500)
(1.83654e-12 -2.91842e-13 -500)
(4.37039e-12 -4.77248e-14 -500)
(8.8583e-16 1.10696e-14 -500)
(-2.04362e-16 -1.17277e-15 -500)
(1.80365e-20 9.11148e-15 -500)
(-2.58196e-14 -3.68447e-13 -500)
(1.57028e-13 -1.32271e-12 -500)
(2.02297e-13 -4.72336e-13 -500)
(2.07784e-15 3.93701e-15 -500)
(-2.12462e-11 -1.07674e-13 -500)
(1.67446e-11 -1.69037e-12 -500)
(2.61046e-12 -1.83349e-12 -500)
(-5.26198e-13 -9.31697e-13 -500)
(-6.00712e-13 -3.77892e-12 -500)
(9.13973e-14 -2.93524e-12 -500)
(-1.43688e-13 -3.03002e-12 -500)
(4.41174e-13 -4.29762e-12 -500)
(-3.62683e-13 -2.74959e-13 -500)
(-1.86031e-12 -3.80492e-12 -500)
(-6.61822e-13 -9.32772e-13 -500)
(9.91795e-13 1.25764e-13 -500)
(2.01322e-12 -2.58405e-12 -500)
(2.74772e-13 -1.04858e-12 -500)
(-8.30613e-13 -2.25168e-12 -500)
(-5.80156e-13 -3.29426e-12 -500)
(-4.78416e-13 -4.61121e-12 -500)
(7.82781e-13 -5.17156e-12 -500)
(1.02364e-12 -2.23828e-12 -500)
(-1.28388e-12 -4.97597e-13 -500)
(-1.8506e-11 -4.41812e-12 -500)
(1.13226e-11 -2.00805e-12 -500)
(3.55586e-12 -1.0084e-12 -500)
(-8.11061e-13 -2.45535e-13 -500)
(-1.06617e-12 -1.13137e-12 -500)
(-6.51712e-15 -7.50334e-13 -500)
(-4.13973e-14 -2.03207e-12 -500)
(1.24493e-12 -9.20011e-13 -500)
(-9.93424e-13 -6.64481e-13 -500)
(-2.42704e-12 -5.34193e-13 -500)
(2.68772e-12 2.86592e-13 -500)
(2.48479e-13 -1.52593e-12 -500)
(6.72763e-13 -1.76871e-12 -500)
(1.01704e-12 -1.51853e-12 -500)
(-1.20355e-12 -1.44766e-13 -500)
(-1.62208e-12 -7.71266e-13 -500)
(-1.4549e-12 -1.4284e-12 -500)
(1.20869e-12 -1.55107e-12 -500)
(2.03198e-12 9.85084e-14 -500)
(-2.86563e-12 -3.12068e-13 -500)
(-1.12198e-11 -8.32467e-13 -500)
(1.10585e-11 8.67914e-13 -500)
(4.66023e-12 1.2495e-12 -500)
(1.99429e-14 1.269e-12 -500)
(-2.46921e-13 1.9058e-12 -500)
(-1.01634e-12 1.67289e-12 -500)
(1.25962e-13 2.09784e-12 -500)
(1.2109e-12 1.89189e-12 -500)
(-2.15727e-13 8.44175e-13 -500)
(-6.62839e-13 2.38592e-12 -500)
(-2.33609e-12 1.6717e-13 -500)
(-8.40348e-13 2.01292e-13 -500)
(2.07978e-12 1.95409e-12 -500)
(2.77469e-12 1.37746e-12 -500)
(8.89879e-13 1.27639e-12 -500)
(-1.88422e-12 2.23854e-12 -500)
(-1.12294e-12 2.61676e-12 -500)
(2.00606e-12 3.25351e-12 -500)
(8.3051e-13 1.58222e-12 -500)
(-4.82345e-12 9.05486e-13 -500)
(-1.23638e-11 1.96911e-12 -500)
(1.46043e-11 3.99874e-12 -500)
(4.4899e-12 1.84726e-12 -500)
(-1.15816e-13 3.37189e-13 -500)
(4.53121e-14 2.74707e-12 -500)
(-7.35043e-13 3.14883e-13 -500)
(-1.38988e-13 5.94491e-12 -500)
(7.3063e-13 5.9395e-13 -500)
(-1.97931e-14 1.98462e-12 -500)
(-3.13242e-12 8.03458e-13 -500)
(-1.48993e-12 1.44594e-13 -500)
(1.61383e-12 1.6866e-12 -500)
(1.79044e-12 3.15258e-12 -500)
(9.76191e-13 2.9557e-12 -500)
(5.11212e-13 3.55401e-13 -500)
(-4.50125e-13 7.06826e-13 -500)
(-7.11694e-13 3.62651e-12 -500)
(6.88876e-13 3.83034e-12 -500)
(4.30777e-13 -2.89729e-13 -500)
(-1.67528e-12 1.25708e-12 -500)
(-1.78938e-11 2.65745e-12 -500)
(2.10658e-11 -2.54362e-15 -500)
(1.87865e-13 2.42789e-15 -500)
(-2.95768e-15 6.0292e-16 -500)
(1.15421e-23 -1.86199e-17 -500)
(-2.82027e-15 1.17126e-14 -500)
(-3.3984e-24 1.56833e-19 -500)
(-6.31171e-24 6.31173e-15 -500)
(3.53772e-15 4.56007e-21 -500)
(-1.56229e-12 2.58e-13 -500)
(-1.74665e-12 4.45067e-13 -500)
(1.49813e-12 1.32111e-12 -500)
(2.942e-12 4.92664e-13 -500)
(2.96181e-14 -5.10109e-17 -500)
(3.76343e-16 3.00767e-14 -500)
(-6.02351e-24 -2.24591e-14 -500)
(2.60574e-24 -3.41139e-15 -500)
(5.08338e-24 -4.11927e-17 -500)
(-1.5492e-20 8.46528e-15 -500)
(3.36324e-15 2.42791e-15 -500)
(-2.12544e-11 -5.26257e-16 -500)
(2.10658e-11 2.66621e-22 -500)
(1.87865e-13 1.26026e-22 -500)
(-2.95768e-15 2.39056e-22 -500)
(1.40595e-24 2.75557e-22 -500)
(1.138e-28 -2.41958e-23 -500)
(-1.3345e-28 1.46009e-22 -500)
(-2.2582e-24 1.37857e-22 -500)
(4.32965e-15 1.57372e-22 -500)
(-4.13396e-12 -9.02146e-14 -500)
(-1.53424e-13 5.18348e-13 -500)
(1.99525e-12 1.17381e-12 -500)
(8.0641e-13 4.31295e-13 -500)
(2.57815e-14 1.8435e-22 -500)
(3.46792e-24 1.43711e-22 -500)
(-7.00749e-29 1.15955e-22 -500)
(-6.05942e-29 1.61082e-22 -500)
(-1.40499e-24 1.71818e-22 -500)
(-1.54901e-20 1.30956e-22 -500)
(3.36324e-15 9.00166e-23 -500)
(-2.12544e-11 2.68356e-22 -500)
(2.10658e-11 8.48344e-27 -500)
(1.87865e-13 7.00402e-28 -500)
(-2.95768e-15 6.19455e-27 -500)
(1.40576e-24 7.35156e-27 -500)
(6.11655e-29 5.40951e-30 -500)
(-1.92692e-28 6.16297e-27 -500)
(2.46995e-14 -1.01694e-27 -500)
(-1.72174e-13 1.77276e-14 -500)
(-1.84522e-12 2.67154e-13 -500)
(-6.33626e-13 9.36863e-13 -500)
(9.42898e-13 -1.47005e-13 -500)
(1.21486e-12 6.37161e-14 -500)
(2.48431e-15 2.49882e-23 -500)
(5.84265e-24 1.05009e-27 -500)
(2.48456e-29 -4.19659e-28 -500)
(-6.10739e-29 2.9078e-27 -500)
(-1.405e-24 1.22018e-27 -500)
(-1.54901e-20 5.21745e-27 -500)
(3.36324e-15 1.97256e-27 -500)
(-2.12544e-11 5.24919e-27 -500)
(2.10658e-11 -1.55164e-28 -500)
(1.87865e-13 -3.5878e-29 -500)
(-2.95768e-15 -4.20286e-27 -500)
(1.40576e-24 -4.20266e-27 -500)
(6.11385e-29 -4.20839e-27 -500)
(-1.9289e-28 -4.20472e-27 -500)
(-1.25106e-23 -4.19141e-27 -500)
(5.46898e-15 4.1865e-16 -500)
(-1.61798e-12 3.90007e-13 -500)
(-6.4388e-13 4.32942e-13 -500)
(1.11852e-12 8.30857e-13 -500)
(1.36863e-12 3.62102e-13 -500)
(-3.71432e-15 1.34259e-23 -500)
(2.75766e-24 -3.51515e-27 -500)
(4.47348e-31 -4.20545e-27 -500)
(-6.1095e-29 -4.20442e-27 -500)
(-1.405e-24 -4.20519e-27 -500)
(-1.54901e-20 -4.20564e-27 -500)
(3.36324e-15 -3.63511e-29 -500)
(-2.12544e-11 -1.55073e-28 -500)
(2.10658e-11 -2.83832e-23 -500)
(1.87865e-13 2.62357e-15 -500)
(-2.95768e-15 -5.86734e-23 -500)
(1.40576e-24 -5.86734e-23 -500)
(6.11535e-29 -5.86734e-23 -500)
(-1.92339e-28 -5.86734e-23 -500)
(-7.34894e-24 -5.86728e-23 -500)
(1.27829e-14 1.56026e-22 -500)
(-8.77311e-13 2.21612e-13 -500)
(-1.97243e-13 -3.63493e-14 -500)
(6.36066e-13 -8.6395e-13 -500)
(-5.30871e-13 -3.4024e-13 -500)
(1.45306e-14 -2.26816e-22 -500)
(3.1052e-24 -5.86734e-23 -500)
(4.04337e-31 -5.86734e-23 -500)
(-6.10987e-29 -5.86734e-23 -500)
(-1.405e-24 -5.86734e-23 -500)
(-1.54901e-20 -5.86734e-23 -500)
(3.36324e-15 2.63534e-15 -500)
(-2.12544e-11 -2.83832e-23 -500)
(2.10658e-11 2.81887e-17 -500)
(1.87865e-13 -2.10457e-13 -500)
(-2.95768e-15 -1.13084e-19 -500)
(1.40576e-24 -1.13084e-19 -500)
(6.10844e-29 -1.13084e-19 -500)
(-1.09327e-28 -1.13084e-19 -500)
(-5.35517e-24 -1.13084e-19 -500)
(1.14425e-14 5.82223e-15 -500)
(-1.64991e-12 3.00031e-13 -500)
(-1.24029e-12 4.4935e-13 -500)
(1.13683e-12 -1.29795e-12 -500)
(2.63703e-12 -4.24583e-13 -500)
(4.28753e-15 -1.13157e-19 -500)
(9.61342e-24 -1.13084e-19 -500)
(1.77264e-30 -1.13084e-19 -500)
(-6.09928e-29 -1.13084e-19 -500)
(-1.405e-24 -1.13084e-19 -500)
(-1.54704e-20 -1.13084e-19 -500)
(3.36324e-15 -2.13607e-13 -500)
(-2.12544e-11 2.81887e-17 -500)
(2.08555e-11 7.37468e-13 -500)
(1.87863e-13 1.89016e-15 -500)
(2.0764e-13 3.36325e-15 -500)
(1.40615e-24 3.36325e-15 -500)
(2.46503e-31 3.36325e-15 -500)
(-1.03613e-28 3.36325e-15 -500)
(-1.18962e-23 3.36325e-15 -500)
(1.23109e-13 -1.00895e-13 -500)
(7.00162e-13 -8.67643e-13 -500)
(-5.53171e-13 -2.32836e-12 -500)
(7.05973e-14 -1.9864e-12 -500)
(1.11577e-12 -5.10437e-13 -500)
(-3.81485e-17 3.36325e-15 -500)
(7.91589e-24 3.36325e-15 -500)
(1.0939e-28 3.36325e-15 -500)
(-1.91657e-31 3.36325e-15 -500)
(2.63534e-15 3.36325e-15 -500)
(-2.13607e-13 3.36325e-15 -500)
(2.13639e-15 2.13355e-15 -500)
(-2.10423e-11 7.37141e-13 -500)
(2.17969e-11 -2.19839e-11 -500)
(-5.53423e-13 -2.10454e-11 -500)
(-4.6718e-15 -2.12544e-11 -500)
(3.51462e-24 -2.12544e-11 -500)
(2.88944e-29 -2.12544e-11 -500)
(-7.3584e-31 -2.12544e-11 -500)
(5.22638e-15 -2.12544e-11 -500)
(-1.04141e-12 -2.08922e-11 -500)
(-3.83477e-12 -1.90119e-11 -500)
(-3.81778e-13 -1.50523e-11 -500)
(2.13635e-12 -1.40907e-11 -500)
(1.14105e-12 -1.87407e-11 -500)
(-1.32643e-14 -2.12544e-11 -500)
(6.54489e-24 -2.12544e-11 -500)
(8.0807e-29 -2.12544e-11 -500)
(-2.87494e-29 -2.12544e-11 -500)
(-3.51456e-24 -2.12544e-11 -500)
(2.81893e-17 -2.12544e-11 -500)
(7.37141e-13 -2.10423e-11 -500)
(-2.19834e-11 -2.19834e-11 -500)
(3.38695e-12 3.38695e-12 -500)
(-1.53222e-14 3.49125e-12 -500)
(-1.56101e-14 3.47252e-12 -500)
(2.11078e-24 3.47252e-12 -500)
(2.46625e-29 3.47252e-12 -500)
(-6.15775e-29 3.47252e-12 -500)
(1.30917e-14 3.47252e-12 -500)
(-6.47729e-14 3.47589e-12 -500)
(-9.19649e-13 3.48592e-12 -500)
(-1.12711e-12 4.11225e-12 -500)
(3.65311e-13 4.19164e-12 -500)
(1.49516e-12 3.52356e-12 -500)
(-5.93837e-19 3.47252e-12 -500)
(4.28416e-24 3.47252e-12 -500)
(1.84823e-28 3.47252e-12 -500)
(-2.46057e-29 3.47252e-12 -500)
(-2.11073e-24 3.47252e-12 -500)
(1.14295e-15 3.47252e-12 -500)
(-8.6016e-14 3.49197e-12 -500)
(-3.27967e-12 3.38695e-12 -500)
(3.49125e-12 -1.59115e-14 -500)
(-9.27674e-14 -9.27675e-14 -500)
(-2.97961e-14 -9.27674e-14 -500)
(1.73213e-24 -9.27674e-14 -500)
(2.10277e-31 -9.27674e-14 -500)
(-1.12623e-28 -9.27674e-14 -500)
(-6.13645e-24 -9.27674e-14 -500)
(-8.15243e-15 -9.26849e-14 -500)
(-5.38529e-13 -2.33212e-13 -500)
(-5.02064e-13 3.34172e-13 -500)
(2.2133e-13 5.50959e-13 -500)
(5.7197e-13 -2.53338e-13 -500)
(1.41278e-22 -9.27674e-14 -500)
(6.4223e-24 -9.27674e-14 -500)
(1.00805e-30 -9.27674e-14 -500)
(-1.20779e-31 -9.27674e-14 -500)
(-1.73213e-24 -9.27674e-14 -500)
(1.9297e-14 -9.27674e-14 -500)
(3.82703e-15 -9.27675e-14 -500)
(-3.38268e-12 -1.59115e-14 -500)
(3.47252e-12 -1.57279e-14 -500)
(-9.27674e-14 -2.97961e-14 -500)
(-1.39195e-14 -1.39194e-14 -500)
(1.73343e-24 -1.39194e-14 -500)
(5.24907e-29 -1.39194e-14 -500)
(-1.55177e-28 -1.39194e-14 -500)
(-1.08624e-23 -1.39194e-14 -500)
(6.97151e-14 -1.46445e-15 -500)
(-1.22639e-12 -2.35227e-13 -500)
(-1.00662e-12 -1.09392e-12 -500)
(7.92171e-13 -5.95542e-13 -500)
(1.09474e-12 -1.97781e-13 -500)
(-1.69583e-19 -1.39194e-14 -500)
(1.40612e-24 -1.39194e-14 -500)
(2.44186e-29 -1.39194e-14 -500)
(-5.24242e-29 -1.39194e-14 -500)
(-1.73278e-24 -1.39194e-14 -500)
(-1.32912e-20 -1.39194e-14 -500)
(3.87919e-15 -3.05724e-14 -500)
(-3.36378e-12 -1.57279e-14 -500)
(3.47252e-12 -3.32179e-23 -500)
(-9.27674e-14 8.10801e-23 -500)
(-1.39195e-14 8.11338e-23 -500)
(1.73343e-24 8.11338e-23 -500)
(5.25097e-29 8.11338e-23 -500)
(-3.72133e-29 8.11338e-23 -500)
(-4.53233e-24 8.11345e-23 -500)
(1.89528e-13 5.08922e-14 -500)
(-2.14057e-12 1.58109e-14 -500)
(-1.29966e-12 -6.22981e-13 -500)
(1.7785e-12 -2.26956e-13 -500)
(2.13419e-12 6.41103e-14 -500)
(1.77907e-21 4.49134e-23 -500)
(7.3155e-24 8.11339e-23 -500)
(2.5251e-29 8.11338e-23 -500)
(-5.24109e-29 8.11338e-23 -500)
(-1.73278e-24 8.11338e-23 -500)
(-1.32912e-20 8.11338e-23 -500)
(3.87919e-15 8.10801e-23 -500)
(-3.36378e-12 -3.32179e-23 -500)
(3.47252e-12 9.3639e-29 -500)
(-9.27674e-14 4.84815e-29 -500)
(-1.39195e-14 3.63272e-27 -500)
(1.73343e-24 3.63273e-27 -500)
(5.25043e-29 3.63471e-27 -500)
(-8.97688e-29 3.63398e-27 -500)
(-7.99607e-24 1.51184e-27 -500)
(2.07464e-13 1.64834e-14 -500)
(-2.11213e-12 3.85832e-13 -500)
(-1.09961e-12 7.14239e-13 -500)
(1.53771e-12 4.29529e-13 -500)
(1.07935e-12 2.09132e-13 -500)
(8.52177e-16 8.07933e-23 -500)
(2.04057e-24 3.44393e-27 -500)
(3.26836e-31 3.63249e-27 -500)
(-5.2428e-29 3.62893e-27 -500)
(-1.73278e-24 3.63487e-27 -500)
(-1.32912e-20 3.63206e-27 -500)
(3.87919e-15 4.39566e-29 -500)
(-3.36378e-12 9.41647e-29 -500)
(3.47252e-12 -5.38966e-27 -500)
(-9.27674e-14 -5.42103e-28 -500)
(-1.39195e-14 -3.39061e-27 -500)
(1.73343e-24 -5.49068e-27 -500)
(5.251e-29 -4.64865e-27 -500)
(-1.41442e-28 -2.97895e-27 -500)
(-1.13773e-23 -3.76439e-27 -500)
(5.89372e-14 1.78981e-22 -500)
(-1.4558e-14 5.21304e-13 -500)
(-5.86643e-13 1.82345e-12 -500)
(5.98334e-13 7.42745e-13 -500)
(1.27412e-12 1.04862e-13 -500)
(4.41346e-21 -2.40457e-22 -500)
(4.91796e-24 -8.83841e-27 -500)
(6.15484e-29 -5.83407e-27 -500)
(-5.24033e-29 -6.3499e-27 -500)
(-1.73278e-24 -6.78066e-28 -500)
(-1.32912e-20 -4.14623e-27 -500)
(3.87919e-15 -1.67195e-27 -500)
(-3.36378e-12 -5.3773e-27 -500)
(3.47252e-12 5.46187e-15 -500)
(-9.27674e-14 -1.29376e-22 -500)
(-1.39195e-14 -1.38138e-22 -500)
(1.73336e-24 -1.15151e-22 -500)
(1.44552e-28 -5.29275e-23 -500)
(-1.31345e-28 -3.55818e-23 -500)
(-4.90608e-24 -7.55696e-23 -500)
(2.23401e-13 -8.04728e-23 -500)
(1.73355e-12 -1.63586e-13 -500)
(-2.22723e-13 -1.37039e-13 -500)
(-8.91153e-14 5.87163e-13 -500)
(5.3675e-13 4.26597e-13 -500)
(3.82927e-20 -1.95959e-22 -500)
(1.15682e-23 -3.53727e-22 -500)
(1.66098e-28 -1.42525e-22 -500)
(-8.25662e-30 -3.35444e-22 -500)
(-1.73278e-24 8.00805e-17 -500)
(-1.32912e-20 -1.61502e-22 -500)
(3.87919e-15 -3.51736e-22 -500)
(-3.36378e-12 2.52076e-16 -500)
(3.42155e-12 -5.347e-14 -500)
(-9.2726e-14 8.6496e-15 -500)
(-1.39195e-14 1.88978e-14 -500)
(1.46889e-14 1.21296e-13 -500)
(1.99823e-19 2.28987e-13 -500)
(-3.11293e-20 1.43101e-13 -500)
(-1.06852e-23 7.44423e-15 -500)
(1.76954e-14 1.45904e-14 -500)
(-7.56303e-13 -5.09319e-13 -500)
(-2.09115e-13 -1.1291e-12 -500)
(5.65999e-13 -2.00251e-13 -500)
(-7.42503e-13 3.35243e-14 -500)
(5.91401e-15 1.19446e-14 -500)
(-3.04733e-19 2.28933e-14 -500)
(1.56186e-20 2.1961e-14 -500)
(6.70513e-20 1.42775e-13 -500)
(-3.97644e-14 4.03372e-13 -500)
(-5.47808e-14 1.42689e-13 -500)
(4.0188e-15 1.3414e-14 -500)
(-3.36175e-12 1.09068e-14 -500)
(3.18845e-12 -1.31492e-12 -500)
(1.53497e-13 -1.48208e-12 -500)
(2.34398e-13 -1.12842e-12 -500)
(1.79841e-13 -8.94303e-13 -500)
(2.31257e-13 -5.70673e-13 -500)
(-1.85035e-13 3.57495e-13 -500)
(-8.60758e-14 -2.02952e-12 -500)
(2.25804e-13 -4.06812e-14 -500)
(-6.91353e-13 2.41033e-13 -500)
(-3.07114e-13 -2.91225e-13 -500)
(6.33753e-13 -1.76039e-13 -500)
(1.10292e-13 -5.06099e-13 -500)
(-5.75919e-15 -4.98385e-13 -500)
(7.96786e-14 -1.61224e-12 -500)
(1.12937e-13 -8.292e-13 -500)
(4.83073e-13 -1.30024e-12 -500)
(7.13788e-14 1.28917e-12 -500)
(-4.54319e-13 5.74415e-13 -500)
(-1.54136e-13 -7.67743e-13 -500)
(-3.42606e-12 5.00925e-13 -500)
(3.7527e-12 -6.02955e-13 -500)
(1.16058e-12 -4.44111e-13 -500)
(5.39357e-13 -1.51915e-12 -500)
(3.22847e-13 -2.06415e-12 -500)
(5.34613e-13 -1.08358e-12 -500)
(-8.01206e-13 -6.79591e-13 -500)
(5.7978e-13 -6.29224e-13 -500)
(7.59115e-13 -1.07984e-12 -500)
(-1.13105e-12 -1.051e-14 -500)
(-3.78486e-13 -2.03626e-13 -500)
(8.75388e-14 -9.04947e-13 -500)
(7.0039e-14 -7.75115e-13 -500)
(-3.57713e-13 -3.00234e-13 -500)
(-5.2258e-13 -4.61356e-13 -500)
(-1.59569e-13 -8.12853e-13 -500)
(7.93307e-13 -5.84713e-13 -500)
(1.20256e-12 4.29059e-15 -500)
(-3.5782e-13 2.19434e-13 -500)
(-1.37921e-12 -2.11683e-13 -500)
(-4.68785e-12 5.71521e-13 -500)
(5.16224e-12 7.83322e-13 -500)
(2.04221e-13 8.38176e-13 -500)
(-1.62228e-12 8.14775e-13 -500)
(2.03754e-13 7.77107e-13 -500)
(1.12173e-12 4.34073e-13 -500)
(3.62692e-13 3.92312e-13 -500)
(-2.67847e-13 1.16384e-12 -500)
(4.39946e-13 -1.52365e-14 -500)
(8.6491e-14 3.2395e-13 -500)
(-1.19011e-12 3.62113e-13 -500)
(-1.59253e-13 9.4097e-14 -500)
(1.42824e-12 5.07699e-13 -500)
(-5.99515e-14 2.12597e-13 -500)
(-6.35609e-13 9.68568e-13 -500)
(1.45015e-13 8.73202e-13 -500)
(8.72127e-13 1.06641e-12 -500)
(6.92583e-13 3.15089e-13 -500)
(-2.89276e-13 2.6573e-13 -500)
(-7.96704e-13 3.18061e-13 -500)
(-5.56217e-12 3.90713e-13 -500)
(4.41475e-12 -3.3602e-13 -500)
(-9.39042e-13 2.02434e-13 -500)
(-6.15286e-13 2.15103e-12 -500)
(1.22644e-13 4.2655e-12 -500)
(5.62673e-13 1.56346e-12 -500)
(9.20793e-14 4.49868e-13 -500)
(-4.11632e-13 7.52714e-13 -500)
(7.47328e-14 2.03326e-12 -500)
(-1.00486e-13 -1.45055e-13 -500)
(-2.14393e-13 -3.92785e-13 -500)
(3.86872e-13 3.57503e-13 -500)
(6.6329e-14 6.64717e-13 -500)
(-4.14199e-15 -3.56256e-13 -500)
(-3.54592e-13 8.77083e-13 -500)
(1.88608e-13 2.21125e-12 -500)
(5.72098e-13 3.50422e-13 -500)
(-4.80598e-14 -2.51473e-13 -500)
(-2.73829e-13 -3.4775e-14 -500)
(3.89222e-13 6.37764e-13 -500)
(-3.90449e-12 -1.91724e-12 -500)
(3.47252e-12 7.60307e-16 -500)
(-9.27674e-14 1.31912e-20 -500)
(-1.39195e-14 -1.11061e-17 -500)
(1.25448e-23 1.26248e-17 -500)
(-1.15285e-24 -5.66711e-21 -500)
(-1.01366e-23 1.29183e-19 -500)
(1.40977e-24 -2.55778e-20 -500)
(1.00199e-14 6.01605e-20 -500)
(-2.5113e-12 1.547e-13 -500)
(-1.14088e-12 4.04954e-13 -500)
(1.44439e-12 1.29808e-13 -500)
(1.15843e-12 -7.30476e-14 -500)
(3.815e-20 2.57232e-16 -500)
(4.80791e-24 1.45197e-20 -500)
(-7.40915e-24 1.32837e-21 -500)
(2.63369e-24 -4.35046e-15 -500)
(3.17927e-24 -1.70456e-17 -500)
(-1.32925e-20 1.05824e-19 -500)
(3.87919e-15 3.09783e-20 -500)
(-3.36378e-12 3.27142e-15 -500)
(3.47252e-12 1.15296e-22 -500)
(-9.27674e-14 1.84677e-22 -500)
(-1.39195e-14 1.59275e-22 -500)
(1.7336e-24 2.76344e-22 -500)
(7.64645e-29 -1.3358e-22 -500)
(-1.15685e-28 2.05196e-22 -500)
(-2.85741e-24 2.22949e-22 -500)
(6.682e-15 1.25993e-22 -500)
(7.24643e-13 2.40657e-13 -500)
(-1.96009e-13 6.70583e-13 -500)
(4.39968e-13 3.6418e-13 -500)
(1.71678e-13 -7.48054e-14 -500)
(-3.02752e-16 1.42628e-22 -500)
(1.14272e-24 1.38316e-22 -500)
(-8.11804e-29 1.34603e-22 -500)
(-5.19205e-29 1.23602e-22 -500)
(-1.73277e-24 2.11124e-22 -500)
(-1.32912e-20 1.45286e-22 -500)
(3.87919e-15 1.09279e-22 -500)
(-3.36378e-12 1.68196e-22 -500)
(3.47252e-12 7.17121e-27 -500)
(-9.27674e-14 8.17236e-28 -500)
(-1.39195e-14 5.29908e-27 -500)
(1.73343e-24 6.34547e-27 -500)
(5.24898e-29 -6.47128e-29 -500)
(-1.65383e-28 5.45046e-27 -500)
(-9.25998e-24 -6.42453e-28 -500)
(8.35865e-14 -2.47853e-22 -500)
(-8.15509e-13 -3.77454e-13 -500)
(-7.02968e-13 -6.91922e-13 -500)
(9.43026e-13 -6.03345e-13 -500)
(1.61185e-12 -6.76032e-14 -500)
(-4.95374e-15 -3.79411e-23 -500)
(4.67419e-24 8.8364e-28 -500)
(2.12916e-29 1.05332e-28 -500)
(-5.24057e-29 2.596e-27 -500)
(-1.73278e-24 1.08841e-27 -500)
(-1.32912e-20 4.6114e-27 -500)
(3.87919e-15 1.88085e-27 -500)
(-3.36378e-12 4.41767e-27 -500)
(3.47252e-12 -9.90015e-29 -500)
(-9.27674e-14 -4.10071e-29 -500)
(-1.39195e-14 -3.62519e-27 -500)
(1.73343e-24 -3.6234e-27 -500)
(5.24806e-29 -3.63144e-27 -500)
(-1.65793e-28 -3.62426e-27 -500)
(-1.40105e-23 -3.61931e-27 -500)
(1.63351e-14 -1.07006e-23 -500)
(-2.08073e-12 4.35451e-15 -500)
(-9.82105e-13 2.38367e-13 -500)
(1.15809e-12 8.57432e-14 -500)
(1.27988e-12 -5.43734e-14 -500)
(-1.40911e-14 -2.15746e-23 -500)
(4.31859e-24 -3.04023e-27 -500)
(7.56456e-31 -3.62589e-27 -500)
(-5.24188e-29 -3.62582e-27 -500)
(-1.73278e-24 -3.62536e-27 -500)
(-1.32912e-20 -3.62588e-27 -500)
(3.87919e-15 -4.23535e-29 -500)
(-3.36378e-12 -9.79612e-29 -500)
(3.47252e-12 3.32179e-23 -500)
(-9.27674e-14 -8.108e-23 -500)
(-1.39195e-14 -8.11266e-23 -500)
(1.73343e-24 -8.11266e-23 -500)
(5.2502e-29 -8.11266e-23 -500)
(-1.6502e-28 -8.11266e-23 -500)
(-7.2156e-24 -8.11261e-23 -500)
(1.20687e-14 1.04731e-22 -500)
(-6.92319e-13 -1.37524e-14 -500)
(-8.59685e-13 2.86293e-13 -500)
(7.68186e-13 -5.63639e-14 -500)
(1.85598e-12 -4.04589e-14 -500)
(-5.62881e-15 -1.9545e-22 -500)
(1.14013e-24 -8.11266e-23 -500)
(1.18262e-31 -8.11266e-23 -500)
(-5.24344e-29 -8.11266e-23 -500)
(-1.73278e-24 -8.11266e-23 -500)
(-1.32912e-20 -8.11266e-23 -500)
(3.87919e-15 -8.108e-23 -500)
(-3.36378e-12 3.32179e-23 -500)
(3.47252e-12 1.14295e-15 -500)
(-9.27674e-14 1.92969e-14 -500)
(-1.39195e-14 -9.73789e-20 -500)
(1.73343e-24 -9.7379e-20 -500)
(5.24397e-29 -9.7379e-20 -500)
(-9.39861e-29 -9.7379e-20 -500)
(-6.45376e-24 -9.7379e-20 -500)
(1.90018e-14 -9.76338e-20 -500)
(-1.83696e-12 -2.63355e-13 -500)
(-1.10576e-12 -5.20545e-13 -500)
(1.11314e-12 -5.72995e-13 -500)
(1.29627e-12 4.82002e-15 -500)
(-1.89955e-16 -9.75002e-20 -500)
(8.52982e-24 -9.7379e-20 -500)
(1.55988e-30 -9.7379e-20 -500)
(-5.23395e-29 -9.7379e-20 -500)
(-1.73278e-24 -9.7379e-20 -500)
(-1.32743e-20 -9.73789e-20 -500)
(3.87919e-15 1.95657e-14 -500)
(-3.36378e-12 1.14295e-15 -500)
(3.49197e-12 -8.58056e-14 -500)
(-9.27451e-14 3.82708e-15 -500)
(-3.05724e-14 3.87916e-15 -500)
(1.73441e-24 3.87916e-15 -500)
(2.67428e-31 3.87916e-15 -500)
(-8.90509e-29 3.87916e-15 -500)
(-1.24415e-23 3.87916e-15 -500)
(-2.41224e-14 2.83722e-14 -500)
(-1.85576e-12 2.18488e-13 -500)
(-1.10623e-12 -1.27897e-13 -500)
(5.42553e-13 -9.46987e-13 -500)
(1.88246e-12 -2.08553e-13 -500)
(1.02298e-17 3.87916e-15 -500)
(6.03283e-24 3.87916e-15 -500)
(9.36325e-29 3.87916e-15 -500)
(-2.02007e-31 3.87916e-15 -500)
(-1.73441e-24 3.87916e-15 -500)
(1.95657e-14 3.87916e-15 -500)
(3.83055e-15 3.82708e-15 -500)
(-3.3832e-12 -8.56377e-14 -500)
(3.38695e-12 -3.2797e-12 -500)
(-1.59116e-14 -3.38268e-12 -500)
(-1.57279e-14 -3.36378e-12 -500)
(2.11289e-24 -3.36378e-12 -500)
(2.46995e-29 -3.36378e-12 -500)
(-1.08883e-30 -3.36378e-12 -500)
(5.24009e-16 -3.36378e-12 -500)
(3.02507e-13 -3.36949e-12 -500)
(7.49964e-13 -3.35631e-12 -500)
(-6.98418e-13 -4.30967e-12 -500)
(2.36359e-13 -4.24123e-12 -500)
(1.37578e-12 -3.35478e-12 -500)
(1.33041e-16 -3.36378e-12 -500)
(8.61341e-24 -3.36378e-12 -500)
(6.98304e-29 -3.36378e-12 -500)
(-2.46345e-29 -3.36378e-12 -500)
(-2.11285e-24 -3.36378e-12 -500)
(1.14295e-15 -3.36378e-12 -500)
(-8.56376e-14 -3.3832e-12 -500)
(-3.27985e-12 -3.27985e-12 -500)
(8.93372e-12 8.93372e-12 -500)
(4.16045e-14 8.92653e-12 -500)
(6.68801e-24 8.92765e-12 -500)
(2.11038e-24 8.92765e-12 -500)
(6.2544e-31 8.92765e-12 -500)
(-1.24587e-30 8.92765e-12 -500)
(9.86087e-15 8.92765e-12 -500)
(-6.03106e-15 8.91231e-12 -500)
(6.0757e-14 7.78561e-12 -500)
(-1.29761e-12 5.89054e-12 -500)
(4.80282e-14 4.52142e-12 -500)
(2.14048e-12 5.63624e-12 -500)
(-6.71845e-18 8.92765e-12 -500)
(4.5876e-24 8.92765e-12 -500)
(7.1034e-31 8.92765e-12 -500)
(-5.7973e-31 8.92765e-12 -500)
(-2.11038e-24 8.92765e-12 -500)
(-6.68801e-24 8.92765e-12 -500)
(-1.42332e-15 8.92646e-12 -500)
(-8.97152e-12 8.93372e-12 -500)
(8.92653e-12 4.17833e-14 -500)
(5.21698e-14 5.21698e-14 -500)
(4.59601e-23 5.21698e-14 -500)
(1.73216e-24 5.21698e-14 -500)
(2.26339e-31 5.21698e-14 -500)
(-1.7185e-31 5.21698e-14 -500)
(-1.07227e-24 5.21698e-14 -500)
(-3.78365e-15 5.21698e-14 -500)
(-1.02206e-12 8.39454e-14 -500)
(-6.88859e-13 4.56351e-13 -500)
(4.90837e-13 1.30301e-12 -500)
(1.27876e-12 1.8483e-12 -500)
(1.7186e-22 5.21698e-14 -500)
(9.40758e-24 5.21698e-14 -500)
(1.53435e-30 5.21698e-14 -500)
(-1.07923e-31 5.21698e-14 -500)
(-1.73215e-24 5.21698e-14 -500)
(-4.59601e-23 5.21698e-14 -500)
(-1.18639e-14 5.21698e-14 -500)
(-8.96478e-12 4.17833e-14 -500)
(8.92765e-12 -4.18247e-22 -500)
(5.21698e-14 1.11285e-21 -500)
(4.59608e-23 1.11288e-21 -500)
(1.73216e-24 1.11288e-21 -500)
(2.02614e-31 1.11288e-21 -500)
(-9.97784e-31 1.11288e-21 -500)
(-8.54947e-24 1.11288e-21 -500)
(-4.4088e-15 9.9283e-22 -500)
(-1.51395e-12 -1.20492e-13 -500)
(-1.04242e-12 -1.43794e-13 -500)
(7.80482e-13 -7.14039e-13 -500)
(1.75028e-12 -5.79463e-14 -500)
(-4.19059e-18 1.16014e-21 -500)
(3.866e-24 1.11288e-21 -500)
(7.17096e-31 1.11288e-21 -500)
(-1.2238e-31 1.11288e-21 -500)
(-1.73215e-24 1.11288e-21 -500)
(-4.59608e-23 1.11288e-21 -500)
(-1.18639e-14 1.11285e-21 -500)
(-8.96578e-12 -4.18247e-22 -500)
(8.92765e-12 -3.32225e-23 -500)
(5.21698e-14 8.10834e-23 -500)
(4.59608e-23 8.10835e-23 -500)
(1.73216e-24 8.10835e-23 -500)
(1.97923e-31 8.10835e-23 -500)
(-1.16128e-30 8.10835e-23 -500)
(-9.61923e-24 8.10835e-23 -500)
(-3.43423e-14 -7.82998e-15 -500)
(-1.14571e-12 6.84499e-14 -500)
(-1.39529e-12 4.3828e-14 -500)
(6.39543e-13 3.36183e-13 -500)
(2.43137e-12 3.22672e-13 -500)
(2.1697e-22 6.26412e-23 -500)
(1.08121e-23 8.10835e-23 -500)
(1.79283e-30 8.10835e-23 -500)
(-1.03315e-31 8.10835e-23 -500)
(-1.73215e-24 8.10835e-23 -500)
(-4.59608e-23 8.10835e-23 -500)
(-1.18639e-14 8.10835e-23 -500)
(-8.96578e-12 -3.32225e-23 -500)
(8.92765e-12 -2.46633e-29 -500)
(5.21698e-14 4.83931e-29 -500)
(4.59608e-23 4.89503e-29 -500)
(1.73216e-24 4.82806e-29 -500)
(2.01938e-31 5.02035e-29 -500)
(-1.1003e-30 4.88651e-29 -500)
(-1.03218e-23 2.44643e-29 -500)
(-3.9141e-14 -9.9095e-23 -500)
(-5.77347e-13 1.88103e-13 -500)
(-7.59135e-13 2.96561e-13 -500)
(6.06083e-13 8.04267e-13 -500)
(5.06987e-13 2.58702e-13 -500)
(2.81978e-15 1.84652e-22 -500)
(6.08271e-24 1.13943e-28 -500)
(1.04498e-30 5.01873e-29 -500)
(-1.17096e-31 4.65992e-29 -500)
(-1.73215e-24 4.96763e-29 -500)
(-4.59608e-23 4.87827e-29 -500)
(-1.18639e-14 4.46187e-29 -500)
(-8.96578e-12 -2.37376e-29 -500)
(8.92765e-12 -1.24626e-28 -500)
(5.21698e-14 -9.15085e-29 -500)
(4.59608e-23 -7.28052e-29 -500)
(1.73216e-24 -9.47124e-29 -500)
(1.95574e-31 -3.97774e-29 -500)
(-1.41289e-30 -7.39698e-29 -500)
(-1.19919e-23 1.99726e-29 -500)
(-2.52957e-14 1.63239e-22 -500)
(-8.97054e-13 -7.08576e-14 -500)
(-5.91215e-13 3.50396e-13 -500)
(5.21821e-13 3.55307e-13 -500)
(1.05327e-12 -2.13178e-14 -500)
(-4.28167e-21 -5.96749e-23 -500)
(3.81015e-24 -2.04777e-28 -500)
(5.62104e-31 -5.43354e-29 -500)
(-1.22875e-31 -1.41692e-28 -500)