/*--------------------------------*- C++ -*----------------------------------*\
| =========                 |                                                 |
| \\      /  F ield         | OpenFOAM: The Open Source CFD Toolbox           |
|  \\    /   O peration     | Version:  2412                                  |
|   \\  /    A nd           | Website:  www.openfoam.com                      |
|    \\/     M anipulation  |                                                 |
\*---------------------------------------------------------------------------*/
FoamFile
{
    version     2.0;
    format      ascii;
    arch        "LSB;label=32;scalar=64";
    class       volVectorField;
    location    "0.004";
    object      U;
}
// * * * * * * * * * * * * * * * * * * * * * * * * * * * * * * * * * * * * * //

dimensions      [0 1 -1 0 0 0 0];

internalField   nonuniform List<vector> 
124215
(
(2.11299e-12 2.11299e-12 -500)
(5.90889e-14 2.11943e-12 -500)
(2.37275e-22 2.11943e-12 -500)
(9.62582e-25 2.11943e-12 -500)
(3.40832e-30 2.11943e-12 -500)
(-8.72905e-30 2.11943e-12 -500)
(-1.80077e-24 2.11943e-12 -500)
(-2.05984e-15 2.11911e-12 -500)
(-1.06119e-13 2.08187e-12 -500)
(-3.5278e-13 1.68195e-12 -500)
(1.14106e-13 1.61177e-12 -500)
(3.91268e-13 2.02566e-12 -500)
(5.29754e-21 2.11943e-12 -500)
(1.62386e-24 2.11943e-12 -500)
(2.49149e-29 2.11943e-12 -500)
(-3.36356e-30 2.11943e-12 -500)
(-9.62575e-25 2.11943e-12 -500)
(-2.37275e-22 2.11943e-12 -500)
(-5.31368e-15 2.11943e-12 -500)
(-2.16671e-12 2.11299e-12 -500)
(2.11943e-12 5.9291e-14 -500)
(5.27135e-14 5.27135e-14 -500)
(7.37218e-24 5.27135e-14 -500)
(1.78381e-25 5.27135e-14 -500)
(2.4692e-32 5.27135e-14 -500)
(-1.55485e-29 5.27135e-14 -500)
(-1.43644e-24 5.27135e-14 -500)
(6.50144e-17 5.27135e-14 -500)
(-2.77922e-13 8.58743e-14 -500)
(-2.05457e-13 2.26367e-13 -500)
(2.71265e-13 1.35659e-13 -500)
(2.3898e-13 1.15997e-13 -500)
(2.64152e-23 5.27135e-14 -500)
(1.04463e-24 5.27135e-14 -500)
(1.59991e-31 5.27135e-14 -500)
(-1.64399e-32 5.27135e-14 -500)
(-1.7838e-25 5.27135e-14 -500)
(-7.37234e-24 5.27135e-14 -500)
(1.94627e-15 5.27135e-14 -500)
(-2.17417e-12 5.9291e-14 -500)
(2.11943e-12 6.04645e-22 -500)
(5.27135e-14 1.96455e-22 -500)
(1.8284e-21 1.33136e-20 -500)
(1.7856e-25 1.33136e-20 -500)
(7.216e-30 1.33136e-20 -500)
(-1.09797e-29 1.33136e-20 -500)
(-2.03713e-25 1.33136e-20 -500)
(5.823e-15 1.33284e-20 -500)
(6.28176e-14 1.4541e-14 -500)
(-3.05657e-13 5.47055e-14 -500)
(-6.58933e-15 2.0119e-13 -500)
(3.67664e-13 1.97864e-14 -500)
(2.38807e-22 1.33127e-20 -500)
(4.75952e-25 1.33136e-20 -500)
(3.37232e-30 1.33136e-20 -500)
(-7.20504e-30 1.33136e-20 -500)
(-1.7847e-25 1.33136e-20 -500)
(-1.8284e-21 1.33136e-20 -500)
(1.94626e-15 1.96456e-22 -500)
(-2.17417e-12 6.04645e-22 -500)
(2.11943e-12 2.03153e-23 -500)
(5.27135e-14 5.298e-24 -500)
(1.8284e-21 5.30532e-24 -500)
(1.7856e-25 5.30532e-24 -500)
(7.21255e-30 5.30532e-24 -500)
(-5.14347e-30 5.30531e-24 -500)
(-8.39973e-25 5.30533e-24 -500)
(1.68075e-15 -8.33725e-23 -500)
(-1.74016e-13 -6.96921e-14 -500)
(-1.8224e-14 -6.00743e-13 -500)
(2.25242e-13 1.1321e-13 -500)
(-2.43505e-14 1.55842e-14 -500)
(2.67049e-22 -5.81307e-25 -500)
(1.82798e-24 5.30533e-24 -500)
(3.60631e-30 5.30532e-24 -500)
(-7.20013e-30 5.30532e-24 -500)
(-1.7847e-25 5.30532e-24 -500)
(-1.8284e-21 5.30532e-24 -500)
(1.94626e-15 5.298e-24 -500)
(-2.17417e-12 2.03153e-23 -500)
(2.11943e-12 3.03593e-29 -500)
(5.27135e-14 6.13006e-30 -500)
(1.8284e-21 4.93945e-28 -500)
(1.7856e-25 4.93366e-28 -500)
(7.20111e-30 4.93867e-28 -500)
(-1.27221e-29 4.93414e-28 -500)
(-4.24474e-24 2.02265e-28 -500)
(-1.70523e-14 -3.41904e-23 -500)
(-6.73372e-13 -6.77769e-14 -500)
(-2.10592e-13 -4.86423e-13 -500)
(6.28209e-13 -2.98819e-13 -500)
(2.04897e-13 -1.64219e-14 -500)
(-3.00324e-18 2.29253e-23 -500)
(1.09908e-24 4.70427e-28 -500)
(1.79915e-31 4.93071e-28 -500)
(-7.20255e-30 4.93448e-28 -500)
(-1.7847e-25 4.93871e-28 -500)
(-1.8284e-21 4.9346e-28 -500)
(1.94626e-15 5.34647e-30 -500)
(-2.17417e-12 3.0528e-29 -500)
(2.11943e-12 -7.52202e-28 -500)
(5.27135e-14 7.54478e-28 -500)
(1.8284e-21 -2.42833e-28 -500)
(1.7856e-25 -7.66944e-28 -500)
(7.20893e-30 -5.61036e-28 -500)
(-1.94647e-29 -4.26864e-28 -500)
(-2.02189e-24 -8.72723e-29 -500)
(-2.05895e-14 8.46447e-23 -500)
(-7.29566e-13 9.96082e-15 -500)
(-2.84237e-13 9.08129e-14 -500)
(6.69979e-13 -1.51587e-13 -500)
(2.93908e-13 -2.72854e-14 -500)
(5.94389e-15 -2.85659e-23 -500)
(1.73337e-24 -1.18285e-27 -500)
(8.64746e-30 -8.19326e-28 -500)
(-7.19682e-30 -8.68249e-28 -500)
(-1.7847e-25 -1.03863e-28 -500)
(-1.8284e-21 -4.93603e-28 -500)
(1.94626e-15 -2.21862e-28 -500)
(-2.17417e-12 -7.47785e-28 -500)
(2.11943e-12 -6.05101e-23 -500)
(5.27135e-14 7.45849e-24 -500)
(1.8284e-21 -2.16524e-23 -500)
(1.78549e-25 -4.50288e-23 -500)
(1.9766e-29 -2.29264e-23 -500)
(-1.80354e-29 -4.0663e-23 -500)
(-1.20457e-24 -7.93428e-24 -500)
(-1.43119e-14 -1.04161e-24 -500)
(-5.7063e-13 2.45484e-14 -500)
(-3.56418e-13 1.65414e-13 -500)
(5.02136e-13 -1.62042e-13 -500)
(3.99606e-13 -1.4437e-14 -500)
(1.20265e-15 -5.03288e-24 -500)
(1.65343e-24 -1.01254e-22 -500)
(1.30647e-29 -6.04305e-23 -500)
(-1.06281e-30 -5.36702e-23 -500)
(-1.78471e-25 -2.10011e-23 -500)
(-1.8284e-21 -3.73782e-23 -500)
(1.94626e-15 -3.29963e-23 -500)
(-2.17417e-12 -5.31482e-23 -500)
(2.11943e-12 -7.72208e-16 -500)
(5.27135e-14 -8.57404e-17 -500)
(2.94214e-21 2.85239e-15 -500)
(-6.13369e-23 4.07305e-16 -500)
(-3.37869e-16 -8.68865e-15 -500)
(-5.01171e-16 -6.86577e-15 -500)
(3.01182e-19 -9.20794e-16 -500)
(-1.5157e-16 3.4149e-15 -500)
(-4.94732e-13 2.08298e-14 -500)
(-5.0226e-13 1.86957e-13 -500)
(4.79206e-13 -8.59242e-14 -500)
(5.23428e-13 -1.07883e-15 -500)
(1.60111e-21 6.20245e-16 -500)
(-8.7588e-17 -5.35708e-15 -500)
(2.07091e-21 -1.77901e-15 -500)
(-8.61739e-17 -5.29217e-15 -500)
(3.1133e-16 -3.7953e-15 -500)
(-2.87502e-21 2.56909e-15 -500)
(1.63893e-15 2.38771e-15 -500)
(-2.17414e-12 -1.77924e-15 -500)
(2.09863e-12 -1.32038e-13 -500)
(7.43017e-14 1.78311e-14 -500)
(-1.85598e-14 -1.17176e-13 -500)
(-2.59437e-14 -2.30597e-13 -500)
(-1.43763e-14 -4.65077e-13 -500)
(-2.36541e-14 -2.84844e-13 -500)
(9.40165e-15 -6.04353e-13 -500)
(1.43187e-14 -1.4974e-13 -500)
(-3.70131e-13 -4.68996e-13 -500)
(-3.80929e-13 1.16198e-13 -500)
(3.01736e-13 4.07661e-13 -500)
(4.4295e-13 -4.92178e-13 -500)
(-2.21643e-14 3.39077e-14 -500)
(-5.19899e-14 -7.39552e-13 -500)
(1.61973e-14 -5.99488e-13 -500)
(-1.70075e-14 -7.13035e-13 -500)
(5.67508e-14 -8.50323e-13 -500)
(5.10596e-14 -1.42819e-13 -500)
(-2.62016e-14 -2.25037e-13 -500)
(-2.15818e-12 -4.94064e-13 -500)
(1.79806e-12 -5.40343e-13 -500)
(1.87399e-13 -3.58866e-13 -500)
(-1.6419e-13 -8.79249e-14 -500)
(-3.25659e-13 -1.93346e-13 -500)
(-4.66797e-14 -1.57313e-13 -500)
(-8.30356e-14 -6.33925e-13 -500)
(8.78708e-14 -2.20026e-13 -500)
(3.47862e-14 -1.20262e-13 -500)
(-1.43526e-13 -1.0583e-13 -500)
(4.68738e-13 3.6605e-13 -500)
(-1.92538e-13 4.94442e-14 -500)
(-1.97296e-14 -4.77205e-13 -500)
(-1.15436e-13 -2.29455e-13 -500)
(-5.81836e-13 -3.20224e-13 -500)
(2.51288e-15 2.01337e-13 -500)
(-1.81795e-13 -1.01944e-13 -500)
(4.64067e-13 -4.98999e-13 -500)
(4.96628e-13 -1.2802e-13 -500)
(-2.7763e-13 -3.28753e-13 -500)
(-1.60069e-12 -4.19935e-13 -500)
(1.34604e-12 1.22225e-13 -500)
(5.53218e-13 8.12148e-14 -500)
(1.49807e-13 1.38969e-13 -500)
(-8.40206e-14 2.82301e-13 -500)
(-4.52813e-13 4.14111e-13 -500)
(-3.89389e-14 3.13292e-13 -500)
(5.03587e-13 4.88715e-13 -500)
(7.60309e-14 2.10509e-13 -500)
(1.06286e-13 4.51624e-13 -500)
(-2.93918e-13 -1.49359e-13 -500)
(-4.46212e-13 -1.85347e-13 -500)
(2.60772e-13 4.39996e-13 -500)
(1.11776e-13 9.4183e-14 -500)
(4.33311e-13 5.95649e-13 -500)
(2.14283e-13 6.03116e-13 -500)
(-7.29304e-13 6.4398e-13 -500)
(6.28841e-14 7.91039e-13 -500)
(1.8421e-13 2.21986e-13 -500)
(-4.64909e-13 2.52085e-13 -500)
(-1.46254e-12 4.53718e-13 -500)
(2.02544e-12 6.25607e-13 -500)
(1.37171e-13 3.21045e-13 -500)
(5.57341e-15 8.56899e-15 -500)
(-7.88244e-15 1.06427e-13 -500)
(-5.70908e-14 1.63294e-13 -500)
(-1.92439e-15 7.15144e-13 -500)
(3.97767e-14 2.06963e-13 -500)
(2.27189e-15 9.47782e-14 -500)
(-4.37968e-13 1.21161e-13 -500)
(-2.53892e-13 -1.78064e-13 -500)
(3.50124e-13 1.62866e-13 -500)
(2.61271e-13 5.04208e-13 -500)
(1.49113e-14 1.78704e-13 -500)
(5.17835e-14 4.38975e-13 -500)
(3.18636e-14 -3.58276e-13 -500)
(-1.01126e-13 1.36895e-13 -500)
(-1.15559e-14 5.3406e-13 -500)
(3.49287e-14 8.79904e-14 -500)
(-2.4664e-14 3.05383e-13 -500)
(-2.13465e-12 4.87613e-13 -500)
(2.11943e-12 2.91593e-20 -500)
(5.27135e-14 1.04188e-15 -500)
(1.82727e-21 -1.56732e-16 -500)
(7.76736e-25 2.79418e-20 -500)
(1.62983e-24 3.7923e-15 -500)
(1.04451e-24 2.07299e-20 -500)
(-2.24199e-24 2.76658e-21 -500)
(3.05163e-15 5.97138e-22 -500)
(-1.46886e-13 -1.07634e-14 -500)
(-2.61591e-13 -1.22735e-13 -500)
(2.0907e-13 -5.66736e-14 -500)
(2.55589e-13 8.76886e-15 -500)
(6.78965e-15 3.58973e-21 -500)
(1.23911e-24 5.19418e-15 -500)
(-4.83871e-25 -5.69377e-15 -500)
(5.18617e-25 -8.06463e-17 -500)
(1.52622e-24 1.34026e-20 -500)
(-1.82821e-21 2.527e-16 -500)
(1.94626e-15 1.04188e-15 -500)
(-2.17417e-12 -4.04037e-17 -500)
(2.11943e-12 7.91331e-23 -500)
(5.27135e-14 1.30967e-23 -500)
(1.8284e-21 4.91893e-23 -500)
(1.78582e-25 4.37392e-23 -500)
(2.10356e-29 3.01004e-23 -500)
(-1.55148e-29 1.15334e-23 -500)
(-4.12049e-25 1.54608e-23 -500)
(1.79772e-16 2.90793e-23 -500)
(-6.71808e-13 -3.00277e-14 -500)
(-3.01133e-13 -2.98494e-13 -500)
(6.10108e-13 1.4122e-13 -500)
(2.70957e-13 1.66835e-14 -500)
(5.63917e-15 3.39059e-23 -500)
(1.30533e-24 3.66101e-23 -500)
(-6.86726e-31 2.48272e-23 -500)
(-7.10324e-30 3.93176e-23 -500)
(-1.78469e-25 3.01874e-23 -500)
(-1.8284e-21 1.31077e-23 -500)
(1.94626e-15 1.19228e-23 -500)
(-2.17417e-12 7.13996e-23 -500)
(2.11943e-12 1.04473e-27 -500)
(5.27135e-14 2.21482e-29 -500)
(1.8284e-21 7.40852e-28 -500)
(1.7856e-25 8.70403e-28 -500)
(7.21867e-30 2.38533e-29 -500)
(-2.27616e-29 6.84059e-28 -500)
(-1.60358e-24 -1.83389e-28 -500)
(-1.05326e-14 -3.49218e-23 -500)
(-5.15629e-13 4.26827e-14 -500)
(-9.01648e-14 3.52222e-13 -500)
(4.95112e-13 2.39612e-13 -500)
(6.69751e-14 2.92697e-14 -500)
(-1.07112e-18 1.68132e-23 -500)
(1.72044e-24 1.43272e-28 -500)
(3.08769e-30 -2.00306e-28 -500)
(-7.19842e-30 3.19251e-28 -500)
(-1.7847e-25 1.50256e-28 -500)
(-1.8284e-21 5.74153e-28 -500)
(1.94626e-15 1.74159e-28 -500)
(-2.17417e-12 6.62964e-28 -500)
(2.11943e-12 -2.83687e-29 -500)
(5.27135e-14 -5.26569e-30 -500)
(1.8284e-21 -4.92877e-28 -500)
(1.7856e-25 -4.93036e-28 -500)
(7.20983e-30 -4.93221e-28 -500)
(-2.27784e-29 -4.93604e-28 -500)
(-1.86304e-24 -4.89101e-28 -500)
(-1.50853e-15 8.99505e-24 -500)
(-2.06012e-13 4.35286e-14 -500)
(-6.61584e-14 4.32876e-13 -500)
(2.28787e-13 2.01567e-13 -500)
(4.21584e-14 4.02648e-14 -500)
(-9.52495e-18 1.2436e-23 -500)
(5.13077e-25 -4.08101e-28 -500)
(7.54683e-32 -4.9331e-28 -500)
(-7.20441e-30 -4.93069e-28 -500)
(-1.7847e-25 -4.93334e-28 -500)
(-1.8284e-21 -4.93728e-28 -500)
(1.94626e-15 -5.25339e-30 -500)
(-2.17417e-12 -2.84906e-29 -500)
(2.11943e-12 -2.03153e-23 -500)
(5.27135e-14 -5.29799e-24 -500)
(1.8284e-21 -5.30433e-24 -500)
(1.7856e-25 -5.30433e-24 -500)
(7.21262e-30 -5.30433e-24 -500)
(-2.26782e-29 -5.30433e-24 -500)
(-8.93139e-25 -5.30425e-24 -500)
(5.51251e-16 2.67602e-23 -500)
(-1.4015e-14 1.08489e-14 -500)
(1.27483e-13 7.30915e-14 -500)
(7.74769e-14 -2.73551e-13 -500)
(-2.29322e-13 -1.93163e-14 -500)
(4.30627e-15 -4.99417e-23 -500)
(1.25124e-24 -5.30434e-24 -500)
(1.77555e-31 -5.30433e-24 -500)
(-7.20296e-30 -5.30433e-24 -500)
(-1.7847e-25 -5.30433e-24 -500)
(-1.8284e-21 -5.30433e-24 -500)
(1.94626e-15 -5.29799e-24 -500)
(-2.17417e-12 -2.03153e-23 -500)
(2.11943e-12 -6.04647e-22 -500)
(5.27135e-14 -1.96457e-22 -500)
(1.8261e-21 -1.33136e-20 -500)
(1.78559e-25 -1.33136e-20 -500)
(7.2038e-30 -1.33136e-20 -500)
(-1.29023e-29 -1.33136e-20 -500)
(-8.12241e-25 -1.33136e-20 -500)
(1.64867e-15 -1.33171e-20 -500)
(-8.00192e-14 1.52729e-14 -500)
(-3.7963e-13 1.47017e-13 -500)
(1.13724e-13 -3.98159e-13 -500)
(3.48471e-13 -4.60319e-14 -500)
(1.27407e-15 -1.33073e-20 -500)
(2.17029e-24 -1.33136e-20 -500)
(3.83302e-31 -1.33136e-20 -500)
(-7.18895e-30 -1.33136e-20 -500)
(-1.7847e-25 -1.33136e-20 -500)
(-1.8261e-21 -1.33136e-20 -500)
(1.94626e-15 -1.96457e-22 -500)
(-2.17417e-12 -6.04647e-22 -500)
(2.11943e-12 -5.53409e-15 -500)
(5.27133e-14 1.94629e-15 -500)
(8.13044e-24 1.94627e-15 -500)
(1.78621e-25 1.94627e-15 -500)
(3.11089e-32 1.94627e-15 -500)
(-1.23044e-29 1.94627e-15 -500)
(-1.8784e-24 1.94627e-15 -500)
(1.03233e-15 1.94627e-15 -500)
(1.69287e-13 -3.38982e-14 -500)
(-2.98156e-13 -3.70973e-13 -500)
(-7.72577e-14 1.97361e-13 -500)
(3.35955e-13 2.1027e-14 -500)
(3.03753e-21 1.94627e-15 -500)
(1.55823e-24 1.94627e-15 -500)
(1.30054e-29 1.94627e-15 -500)
(-2.49647e-32 1.94627e-15 -500)
(-1.7862e-25 1.94627e-15 -500)
(-8.13061e-24 1.94627e-15 -500)
(1.94653e-15 1.94629e-15 -500)
(-2.17417e-12 -5.53409e-15 -500)
(2.11299e-12 -2.16671e-12 -500)
(5.9291e-14 -2.17417e-12 -500)
(2.43932e-22 -2.17417e-12 -500)
(9.90706e-25 -2.17417e-12 -500)
(3.50696e-30 -2.17417e-12 -500)
(-1.06129e-31 -2.17417e-12 -500)
(-9.94449e-25 -2.17417e-12 -500)
(-3.26615e-14 -2.17417e-12 -500)
(-5.84364e-13 -2.16787e-12 -500)
(2.4112e-14 -1.9292e-12 -500)
(4.86719e-13 -1.80357e-12 -500)
(-2.53769e-14 -2.15474e-12 -500)
(-5.67894e-15 -2.17417e-12 -500)
(9.75042e-25 -2.17417e-12 -500)
(9.54732e-30 -2.17417e-12 -500)
(-3.46138e-30 -2.17417e-12 -500)
(-9.90699e-25 -2.17417e-12 -500)
(-2.43932e-22 -2.17417e-12 -500)
(-5.53407e-15 -2.17417e-12 -500)
(-2.16671e-12 -2.16671e-12 -500)
(1.66827e-12 1.66827e-12 -500)
(-2.03931e-15 1.66674e-12 -500)
(7.01456e-22 1.66674e-12 -500)
(3.88937e-25 1.66674e-12 -500)
(1.04287e-29 1.66674e-12 -500)
(-2.61688e-29 1.66674e-12 -500)
(-6.21703e-25 1.66674e-12 -500)
(-2.08074e-14 1.66112e-12 -500)
(-3.89884e-13 1.51877e-12 -500)
(-2.62106e-13 9.16794e-13 -500)
(3.16899e-13 1.30265e-12 -500)
(2.70677e-13 1.60051e-12 -500)
(1.68924e-20 1.66674e-12 -500)
(9.61076e-25 1.66674e-12 -500)
(7.91825e-29 1.66674e-12 -500)
(-1.04162e-29 1.66674e-12 -500)
(-3.88917e-25 1.66674e-12 -500)
(-7.01455e-22 1.66674e-12 -500)
(-4.62123e-16 1.66674e-12 -500)
(-1.66598e-12 1.66827e-12 -500)
(1.66674e-12 -2.03972e-15 -500)
(-1.07945e-15 -1.07949e-15 -500)
(8.4666e-24 -1.07945e-15 -500)
(3.19078e-25 -1.07945e-15 -500)
(3.47798e-32 -1.07945e-15 -500)
(-4.82819e-29 -1.07945e-15 -500)
(-2.24109e-24 -1.07945e-15 -500)
(-4.07487e-15 -1.07945e-15 -500)
(-5.89956e-13 9.21631e-14 -500)
(-1.55969e-13 2.6776e-13 -500)
(4.41768e-13 2.23143e-13 -500)
(1.958e-13 6.83578e-14 -500)
(1.11436e-23 -1.07945e-15 -500)
(3.18591e-25 -1.07945e-15 -500)
(3.55543e-32 -1.07945e-15 -500)
(-2.57907e-32 -1.07945e-15 -500)
(-3.19078e-25 -1.07945e-15 -500)
(-8.46686e-24 -1.07945e-15 -500)
(-9.6873e-16 -1.07949e-15 -500)
(-1.66441e-12 -2.03972e-15 -500)
(1.66674e-12 6.24663e-22 -500)
(-1.07945e-15 2.05002e-22 -500)
(5.69243e-21 4.15159e-20 -500)
(3.19637e-25 4.15159e-20 -500)
(2.24768e-29 4.15159e-20 -500)
(-6.63098e-29 4.15159e-20 -500)
(-2.20794e-24 4.15159e-20 -500)
(1.93733e-15 4.16089e-20 -500)
(-1.2821e-13 1.00463e-14 -500)
(-3.92032e-14 -7.01868e-14 -500)
(1.86549e-13 1.30114e-14 -500)
(-1.08717e-14 1.13111e-14 -500)
(6.95052e-22 4.15189e-20 -500)
(-4.02315e-25 4.15159e-20 -500)
(1.02892e-29 4.15159e-20 -500)
(-2.24673e-29 4.15159e-20 -500)
(-3.19359e-25 4.15159e-20 -500)
(-5.69243e-21 4.15159e-20 -500)
(-9.68735e-16 2.05005e-22 -500)
(-1.66441e-12 6.24663e-22 -500)
(1.66674e-12 -6.11814e-24 -500)
(-1.07945e-15 1.49353e-23 -500)
(5.69244e-21 1.49583e-23 -500)
(3.19637e-25 1.49583e-23 -500)
(2.2484e-29 1.49583e-23 -500)
(-1.57252e-29 1.49583e-23 -500)
(8.42005e-26 1.49586e-23 -500)
(1.47795e-15 4.6828e-23 -500)
(-6.59808e-13 -3.47801e-14 -500)
(-2.04071e-13 -4.05525e-13 -500)
(6.31667e-13 -4.08657e-13 -500)
(1.56201e-13 -5.3908e-14 -500)
(7.13444e-22 -2.60859e-24 -500)
(6.44398e-25 1.49584e-23 -500)
(1.04302e-29 1.49583e-23 -500)
(-2.24651e-29 1.49583e-23 -500)
(-3.19359e-25 1.49583e-23 -500)
(-5.69244e-21 1.49583e-23 -500)
(-9.68735e-16 1.49353e-23 -500)
(-1.66441e-12 -6.11814e-24 -500)
(1.66674e-12 4.63639e-29 -500)
(-1.07945e-15 9.0393e-30 -500)
(5.69244e-21 1.54713e-27 -500)
(3.19637e-25 1.54685e-27 -500)
(2.24823e-29 1.5472e-27 -500)
(-3.82395e-29 1.54729e-27 -500)
(-7.78174e-25 6.44955e-28 -500)
(-2.06397e-16 -8.19143e-23 -500)
(-7.14949e-13 3.26013e-14 -500)
(-4.33301e-13 2.84151e-13 -500)
(6.59203e-13 -1.54311e-13 -500)
(5.00297e-13 -2.2112e-14 -500)
(-3.73719e-17 -6.68506e-24 -500)
(-3.08231e-25 1.45121e-27 -500)
(-6.40715e-32 1.54664e-27 -500)
(-2.24688e-29 1.54602e-27 -500)
(-3.19359e-25 1.5476e-27 -500)
(-5.69244e-21 1.54677e-27 -500)
(-9.68735e-16 8.13552e-30 -500)
(-1.66441e-12 4.63927e-29 -500)
(1.66674e-12 -2.27879e-27 -500)
(-1.07945e-15 -2.07948e-28 -500)
(5.69244e-21 -1.43157e-27 -500)
(3.19637e-25 -2.3396e-27 -500)
(2.24868e-29 -1.99281e-27 -500)
(-6.03277e-29 -1.26636e-27 -500)
(-1.85906e-24 -1.62229e-27 -500)
(2.57006e-15 2.43681e-23 -500)
(-2.67514e-13 3.64203e-14 -500)
(-3.76865e-13 4.2142e-13 -500)
(3.17958e-13 -9.67289e-14 -500)
(4.01566e-13 3.89247e-15 -500)
(2.03898e-21 -7.11406e-23 -500)
(1.22999e-24 -3.73793e-27 -500)
(2.62858e-29 -2.48694e-27 -500)
(-2.24593e-29 -2.68651e-27 -500)
(-3.19359e-25 -2.77838e-28 -500)
(-5.69244e-21 -1.75769e-27 -500)
(-9.68735e-16 -6.64536e-28 -500)
(-1.66441e-12 -2.27793e-27 -500)
(1.66674e-12 -5.35484e-23 -500)
(-1.07945e-15 -1.99108e-23 -500)
(5.69244e-21 -2.48431e-23 -500)
(3.19605e-25 -2.94094e-23 -500)
(6.19299e-29 -1.9991e-23 -500)
(-5.60012e-29 -4.54863e-24 -500)
(-8.03278e-25 -3.19323e-23 -500)
(5.81795e-15 2.44245e-23 -500)
(-1.94071e-13 -1.6879e-14 -500)
(-4.52654e-13 -8.52357e-14 -500)
(1.9503e-13 -2.45613e-13 -500)
(4.80485e-13 -2.41423e-14 -500)
(1.63895e-20 -1.70695e-23 -500)
(3.03055e-24 -7.89181e-23 -500)
(7.10371e-29 -4.09063e-23 -500)
(-3.63319e-30 -8.01221e-23 -500)
(-3.19359e-25 1.74715e-24 -500)
(-5.69244e-21 -3.71469e-23 -500)
(-9.68735e-16 -5.99822e-23 -500)
(-1.66441e-12 -5.33031e-23 -500)
(1.66562e-12 -6.12988e-15 -500)
(-1.07944e-15 -1.44292e-15 -500)
(9.51337e-21 6.74969e-15 -500)
(-1.90969e-22 2.40871e-15 -500)
(8.57502e-20 5.94825e-15 -500)
(-1.33572e-20 1.55487e-15 -500)
(-1.58029e-24 -1.13756e-15 -500)
(3.94329e-16 2.62753e-15 -500)
(-4.61178e-13 1.23976e-14 -500)
(-5.81971e-13 -4.14375e-14 -500)
(3.69417e-13 1.08154e-13 -500)
(7.23788e-13 1.92916e-14 -500)
(4.84985e-21 3.07934e-15 -500)
(-1.30774e-19 3.33996e-16 -500)
(6.70273e-21 1.16889e-15 -500)
(2.8773e-20 4.3856e-15 -500)
(5.17164e-21 -1.0596e-15 -500)
(-9.17011e-21 8.95115e-15 -500)
(-9.68735e-16 2.34954e-16 -500)
(-1.66441e-12 -6.31404e-15 -500)
(1.57641e-12 -4.96141e-13 -500)
(4.7802e-14 -5.24794e-13 -500)
(1.50917e-14 -2.36741e-13 -500)
(-4.80916e-15 -3.34328e-13 -500)
(2.57156e-14 -3.54385e-13 -500)
(-2.21403e-14 -5.96107e-14 -500)
(-3.39589e-14 -5.96223e-13 -500)
(1.48164e-14 -5.09406e-13 -500)
(-1.89044e-13 -3.42405e-13 -500)
(-3.22557e-13 -2.95289e-14 -500)
(2.29145e-13 3.05719e-13 -500)
(3.23638e-13 -1.58485e-13 -500)
(-1.70533e-14 -4.08556e-13 -500)
(-1.10064e-14 -5.29829e-13 -500)
(1.75097e-14 -5.62596e-13 -500)
(-1.10881e-14 -3.52624e-13 -500)
(1.25878e-14 -4.93363e-13 -500)
(7.97873e-15 -1.44212e-13 -500)
(-2.50108e-14 -3.73511e-13 -500)
(-1.61049e-12 -4.45208e-13 -500)
(9.20529e-13 -3.18736e-13 -500)
(2.81061e-13 -2.9495e-13 -500)
(7.76243e-14 -4.12514e-13 -500)
(-1.26358e-13 -6.95265e-13 -500)
(2.25113e-13 -2.00123e-13 -500)
(-1.98994e-13 -5.73321e-13 -500)
(-3.48331e-13 -2.36019e-13 -500)
(1.56175e-13 -5.50534e-13 -500)
(2.03894e-14 -2.61306e-13 -500)
(6.29193e-14 1.07831e-13 -500)
(2.0692e-13 -9.77782e-14 -500)
(-8.66823e-14 -6.90587e-13 -500)
(-2.48881e-13 -2.54891e-13 -500)
(-1.56443e-13 -1.59902e-13 -500)
(1.57385e-13 -2.54005e-13 -500)
(5.77039e-14 -2.04766e-13 -500)
(2.20894e-13 -3.20629e-13 -500)
(1.23823e-13 -2.27367e-13 -500)
(-3.18654e-13 -1.4689e-13 -500)
(-9.76527e-13 -1.14249e-13 -500)
(1.12245e-12 4.23636e-13 -500)
(-5.54093e-14 3.74165e-13 -500)
(-3.62403e-13 2.1697e-13 -500)
(2.33837e-13 3.27842e-13 -500)
(7.46174e-14 3.20208e-13 -500)
(-4.76915e-14 1.00436e-13 -500)
(7.52191e-14 5.25367e-13 -500)
(-8.9775e-15 4.74269e-13 -500)
(3.40987e-13 3.41401e-13 -500)
(-1.27368e-13 1.22933e-13 -500)
(-5.94347e-13 -1.00206e-13 -500)
(2.11313e-13 2.28435e-13 -500)
(5.78511e-13 3.76556e-13 -500)
(-8.18768e-14 5.15095e-13 -500)
(-2.65196e-14 5.30671e-13 -500)
(-4.31451e-14 3.9247e-13 -500)
(-2.34205e-14 4.4396e-13 -500)
(1.94777e-13 1.55243e-13 -500)
(6.44914e-15 3.45351e-13 -500)
(-1.34702e-12 3.83644e-13 -500)
(1.58288e-12 3.48567e-13 -500)
(2.18388e-14 3.2048e-13 -500)
(-3.76542e-14 5.31502e-13 -500)
(3.26835e-14 8.50022e-13 -500)
(1.39322e-14 1.09901e-13 -500)
(-1.61131e-14 7.02044e-13 -500)
(-1.27746e-15 2.1521e-13 -500)
(-3.79444e-15 6.16085e-13 -500)
(-2.92985e-13 2.6249e-13 -500)
(-4.01129e-13 -2.70356e-13 -500)
(3.00502e-13 1.38252e-13 -500)
(4.50781e-13 7.4536e-13 -500)
(2.79879e-14 1.95327e-13 -500)
(-2.36963e-14 1.71091e-13 -500)
(7.89315e-15 3.86695e-13 -500)
(1.46127e-14 2.19395e-13 -500)
(-1.4919e-14 3.92934e-13 -500)
(1.08536e-14 2.56635e-13 -500)
(2.19969e-15 1.52856e-13 -500)
(-1.63928e-12 1.71423e-13 -500)
(1.66674e-12 8.76306e-20 -500)
(-1.07945e-15 5.27182e-21 -500)
(5.69094e-21 5.209e-20 -500)
(4.61512e-24 7.43189e-20 -500)
(4.24576e-25 -5.20056e-22 -500)
(-1.85448e-24 5.476e-20 -500)
(-1.4519e-24 5.59746e-21 -500)
(-1.45281e-16 2.5096e-22 -500)
(-4.76857e-13 2.76937e-14 -500)
(-3.30086e-13 1.51875e-13 -500)
(3.84794e-13 6.04743e-14 -500)
(3.69899e-13 7.31608e-15 -500)
(1.63746e-20 9.80807e-21 -500)
(2.68902e-24 5.52917e-21 -500)
(-1.93663e-24 8.33684e-23 -500)
(2.93716e-25 -8.491e-16 -500)
(2.66868e-25 2.87698e-20 -500)
(-5.69422e-21 4.51356e-20 -500)
(-9.68735e-16 1.28188e-20 -500)
(-1.66441e-12 -5.65794e-16 -500)
(1.66674e-12 3.98365e-23 -500)
(-1.07945e-15 2.45409e-23 -500)
(5.69244e-21 5.86508e-23 -500)
(3.19708e-25 6.14511e-23 -500)
(3.29181e-29 -3.68865e-23 -500)
(-4.91513e-29 3.78861e-23 -500)
(-2.74746e-25 1.60953e-23 -500)
(1.73101e-15 3.85719e-23 -500)
(-1.04166e-13 -5.85347e-15 -500)
(-3.79689e-13 -3.69283e-14 -500)
(2.05578e-13 -1.36668e-13 -500)
(3.94951e-13 -1.61742e-14 -500)
(-4.19533e-18 4.81455e-23 -500)
(-7.02801e-26 7.30811e-24 -500)
(-3.4669e-29 3.83029e-24 -500)
(-2.24103e-29 2.44755e-23 -500)
(-3.19356e-25 1.88127e-23 -500)
(-5.69244e-21 4.12883e-23 -500)
(-9.68735e-16 1.84907e-23 -500)
(-1.66441e-12 3.51275e-23 -500)
(1.66674e-12 3.06495e-27 -500)
(-1.07945e-15 3.12373e-28 -500)
(5.69244e-21 2.26117e-27 -500)
(3.19637e-25 2.68194e-27 -500)
(2.24784e-29 -2.13554e-29 -500)
(-7.07542e-29 2.30124e-27 -500)
(-2.42359e-24 -3.17579e-28 -500)
(-2.40994e-15 -6.72696e-23 -500)
(-5.28443e-13 -2.29897e-14 -500)
(-4.77853e-13 -1.76322e-13 -500)
(4.47706e-13 -2.64327e-14 -500)
(5.61812e-13 -2.82578e-15 -500)
(-2.72928e-17 -5.11131e-24 -500)
(2.11982e-25 3.49881e-28 -500)
(8.83014e-30 5.0293e-30 -500)
(-2.24657e-29 1.08699e-27 -500)
(-3.19359e-25 4.19999e-28 -500)
(-5.69244e-21 1.95997e-27 -500)
(-9.68735e-16 7.84713e-28 -500)
(-1.66441e-12 1.86637e-27 -500)
(1.66674e-12 -4.71442e-29 -500)
(-1.07945e-15 -7.75257e-30 -500)
(5.69244e-21 -1.54506e-27 -500)
(3.19637e-25 -1.54519e-27 -500)
(2.24754e-29 -1.54716e-27 -500)
(-7.07605e-29 -1.54553e-27 -500)
(-2.66509e-24 -1.54504e-27 -500)
(4.32494e-15 2.38446e-24 -500)
(-3.95738e-13 1.44442e-14 -500)
(-3.87045e-13 6.10036e-14 -500)
(3.69268e-13 3.47567e-14 -500)
(4.89806e-13 1.73015e-15 -500)
(-2.1408e-16 -2.30501e-24 -500)
(-2.40282e-27 -1.29644e-27 -500)
(-3.68802e-33 -1.54631e-27 -500)
(-2.24676e-29 -1.54579e-27 -500)
(-3.19359e-25 -1.54618e-27 -500)
(-5.69244e-21 -1.54554e-27 -500)
(-9.68735e-16 -7.77153e-30 -500)
(-1.66441e-12 -4.72405e-29 -500)
(1.66674e-12 6.11815e-24 -500)
(-1.07945e-15 -1.49353e-23 -500)
(5.69244e-21 -1.49553e-23 -500)
(3.19637e-25 -1.49553e-23 -500)
(2.24759e-29 -1.49553e-23 -500)
(-7.07351e-29 -1.49553e-23 -500)
(-2.32741e-24 -1.4955e-23 -500)
(1.77672e-15 5.19436e-23 -500)
(-5.0788e-13 1.60315e-14 -500)
(-4.6053e-13 1.1583e-13 -500)
(3.9048e-13 -2.64298e-16 -500)
(5.37761e-13 6.04985e-16 -500)
(-3.731e-18 -3.31648e-23 -500)
(-2.42211e-25 -1.49553e-23 -500)
(-5.17728e-32 -1.49553e-23 -500)
(-2.24689e-29 -1.49553e-23 -500)
(-3.19359e-25 -1.49553e-23 -500)
(-5.69244e-21 -1.49553e-23 -500)
(-9.68735e-16 -1.49353e-23 -500)
(-1.66441e-12 6.11815e-24 -500)
(1.66674e-12 -6.24674e-22 -500)
(-1.07945e-15 -2.05005e-22 -500)
(5.68518e-21 -4.15159e-20 -500)
(3.19636e-25 -4.15159e-20 -500)
(2.24528e-29 -4.15159e-20 -500)
(-4.01216e-29 -4.15159e-20 -500)
(-9.8165e-25 -4.15159e-20 -500)
(3.00313e-15 -4.15528e-20 -500)
(-2.18853e-13 1.72442e-14 -500)
(-4.16628e-13 2.02401e-13 -500)
(2.5295e-13 2.7719e-13 -500)
(4.46783e-13 3.37619e-14 -500)
(3.62326e-23 -4.15542e-20 -500)
(1.21998e-24 -4.15159e-20 -500)
(2.63785e-31 -4.15159e-20 -500)
(-2.24347e-29 -4.15159e-20 -500)
(-3.19359e-25 -4.15159e-20 -500)
(-5.68518e-21 -4.15159e-20 -500)
(-9.68735e-16 -2.05008e-22 -500)
(-1.66441e-12 -6.24674e-22 -500)
(1.66674e-12 -4.61717e-16 -500)
(-1.0804e-15 -9.68697e-16 -500)
(1.08713e-23 -9.68738e-16 -500)
(3.19539e-25 -9.68738e-16 -500)
(6.87464e-32 -9.68738e-16 -500)
(-3.78571e-29 -9.68738e-16 -500)
(-2.47565e-24 -9.68738e-16 -500)
(6.41518e-15 -9.68738e-16 -500)
(-3.02015e-13 1.10243e-14 -500)
(-1.95454e-13 6.4733e-14 -500)
(2.42772e-13 8.51619e-14 -500)
(1.46938e-13 1.34344e-14 -500)
(9.41262e-21 -9.68738e-16 -500)
(1.76888e-24 -9.68738e-16 -500)
(4.00649e-29 -9.68738e-16 -500)
(-5.36853e-32 -9.68738e-16 -500)
(-3.19539e-25 -9.68738e-16 -500)
(-1.08715e-23 -9.68738e-16 -500)
(-9.67789e-16 -9.68697e-16 -500)
(-1.66441e-12 -4.61717e-16 -500)
(1.66827e-12 -1.66598e-12 -500)
(-2.03974e-15 -1.66441e-12 -500)
(7.02915e-22 -1.66441e-12 -500)
(3.89327e-25 -1.66441e-12 -500)
(1.04488e-29 -1.66441e-12 -500)
(-7.88151e-32 -1.66441e-12 -500)
(-6.4895e-25 -1.66441e-12 -500)
(1.87877e-16 -1.66441e-12 -500)
(1.68503e-14 -1.64497e-12 -500)
(-1.73533e-13 -1.34034e-12 -500)
(6.62609e-14 -1.29524e-12 -500)
(2.15577e-13 -1.64998e-12 -500)
(2.9163e-21 -1.66441e-12 -500)
(1.03151e-24 -1.66441e-12 -500)
(2.95169e-29 -1.66441e-12 -500)
(-1.04353e-29 -1.66441e-12 -500)
(-3.89308e-25 -1.66441e-12 -500)
(-7.02915e-22 -1.66441e-12 -500)
(-4.61692e-16 -1.66441e-12 -500)
(-1.66598e-12 -1.66598e-12 -500)
(1.70762e-12 1.70762e-12 -500)
(-1.22329e-16 1.70772e-12 -500)
(1.23209e-24 1.70772e-12 -500)
(3.88764e-25 1.70772e-12 -500)
(1.18494e-31 1.70772e-12 -500)
(-1.27899e-31 1.70772e-12 -500)
(-1.2398e-24 1.70772e-12 -500)
(-1.89223e-15 1.7078e-12 -500)
(1.38873e-13 1.67225e-12 -500)
(-4.01855e-13 1.34817e-12 -500)
(-2.91505e-14 8.57762e-13 -500)
(4.49998e-13 1.54882e-12 -500)
(9.67949e-24 1.70772e-12 -500)
(3.7828e-25 1.70772e-12 -500)
(5.1274e-32 1.70772e-12 -500)
(-1.08344e-31 1.70772e-12 -500)
(-3.88764e-25 1.70772e-12 -500)
(-1.23208e-24 1.70772e-12 -500)
(-6.96245e-16 1.70772e-12 -500)
(-1.70724e-12 1.70762e-12 -500)
(1.70772e-12 -1.22759e-16 -500)
(3.84291e-16 3.84302e-16 -500)
(8.46657e-24 3.84302e-16 -500)
(3.19091e-25 3.84302e-16 -500)
(4.21968e-32 3.84302e-16 -500)
(-3.33669e-32 3.84302e-16 -500)
(-4.20946e-25 3.84302e-16 -500)
(-2.14049e-15 3.84302e-16 -500)
(-4.58726e-13 -5.85299e-14 -500)
(-4.675e-13 -6.69313e-13 -500)
(3.74918e-13 -8.63334e-15 -500)
(5.04349e-13 7.28767e-14 -500)
(4.12513e-23 3.84302e-16 -500)
(2.02857e-24 3.84302e-16 -500)
(3.26871e-31 3.84302e-16 -500)
(-1.91472e-32 3.84302e-16 -500)
(-3.1909e-25 3.84302e-16 -500)
(-8.46657e-24 3.84302e-16 -500)
(-1.20286e-15 3.84302e-16 -500)
(-1.70722e-12 -1.22759e-16 -500)
(1.70772e-12 -7.70478e-23 -500)
(3.84291e-16 2.05008e-22 -500)
(8.46689e-24 2.05021e-22 -500)
(3.1909e-25 2.05021e-22 -500)
(3.58764e-32 2.05021e-22 -500)
(-2.42484e-31 2.05021e-22 -500)
(-2.16497e-24 2.05021e-22 -500)
(2.47521e-17 2.25977e-22 -500)
(-6.87856e-13 8.83041e-15 -500)
(-5.07894e-13 -5.13489e-14 -500)
(5.56357e-13 -5.5931e-15 -500)
(5.39581e-13 -5.07047e-16 -500)
(1.95554e-23 2.19634e-22 -500)
(8.54622e-25 2.05021e-22 -500)
(1.60411e-31 2.05021e-22 -500)
(-2.19117e-32 2.05021e-22 -500)
(-3.1909e-25 2.05021e-22 -500)
(-8.46689e-24 2.05021e-22 -500)
(-1.20286e-15 2.05008e-22 -500)
(-1.70722e-12 -7.70477e-23 -500)
(1.70772e-12 -6.12011e-24 -500)
(3.84291e-16 1.4937e-23 -500)
(8.46689e-24 1.49371e-23 -500)
(3.1909e-25 1.49371e-23 -500)
(3.95761e-32 1.49371e-23 -500)
(-1.06535e-31 1.49371e-23 -500)
(-9.16926e-25 1.49371e-23 -500)
(2.41467e-15 2.67904e-23 -500)
(-4.42442e-13 3.5975e-14 -500)
(-4.44427e-13 1.99566e-13 -500)
(4.45116e-13 3.73e-13 -500)
(5.31693e-13 4.70187e-14 -500)
(3.17785e-23 2.6195e-23 -500)
(1.59337e-24 1.49371e-23 -500)
(2.47596e-31 1.49371e-23 -500)
(-2.10369e-32 1.49371e-23 -500)
(-3.1909e-25 1.49371e-23 -500)
(-8.46689e-24 1.49371e-23 -500)
(-1.20286e-15 1.4937e-23 -500)
(-1.70722e-12 -6.12011e-24 -500)
(1.70772e-12 -4.85374e-30 -500)
(3.84291e-16 8.66801e-30 -500)
(8.46689e-24 8.57677e-30 -500)
(3.1909e-25 9.42561e-30 -500)
(3.66353e-32 9.82498e-30 -500)
(-2.20381e-31 9.45723e-30 -500)
(-2.0842e-24 -6.27539e-31 -500)
(3.29855e-15 -3.46347e-23 -500)
(-2.77854e-13 3.72507e-14 -500)
(-1.1762e-13 3.88935e-13 -500)
(3.24495e-13 1.51311e-13 -500)
(5.93525e-14 1.66267e-14 -500)
(-2.16881e-16 2.35838e-23 -500)
(3.8229e-25 1.73982e-29 -500)
(6.63182e-32 9.08543e-30 -500)
(-2.42947e-32 8.35319e-30 -500)
(-3.1909e-25 9.26531e-30 -500)
(-8.46689e-24 8.88939e-30 -500)
(-1.20286e-15 7.80048e-30 -500)
(-1.70722e-12 -4.72808e-30 -500)
(1.70772e-12 -3.09141e-29 -500)
(3.84291e-16 -2.34193e-29 -500)
(8.46689e-24 -2.55697e-29 -500)
(3.1909e-25 -3.24002e-30 -500)
(3.47174e-32 8.36596e-30 -500)
(-2.92526e-31 2.69053e-31 -500)
(-2.2712e-24 1.88414e-30 -500)
(2.10224e-15 5.14897e-23 -500)
(-6.16729e-14 4.85254e-15 -500)
(-3.46505e-13 1.19307e-13 -500)
(8.28067e-14 -2.99569e-13 -500)
(3.77828e-13 -4.26438e-14 -500)
(1.65649e-23 -5.3943e-23 -500)
(6.29573e-25 -4.9357e-29 -500)
(8.55708e-32 -1.47713e-29 -500)
(-2.09267e-32 -3.20915e-29 -500)