/*--------------------------------*- C++ -*----------------------------------*\
| =========                 |                                                 |
| \\      /  F ield         | OpenFOAM: The Open Source CFD Toolbox           |
|  \\    /   O peration     | Version:  2412                                  |
|   \\  /    A nd           | Website:  www.openfoam.com                      |
|    \\/     M anipulation  |                                                 |
\*---------------------------------------------------------------------------*/
FoamFile
{
    version     2.0;
    format      ascii;
    arch        "LSB;label=32;scalar=64";
    class       volVectorField;
    location    "0.011";
    object      U;
}
// * * * * * * * * * * * * * * * * * * * * * * * * * * * * * * * * * * * * * //

dimensions      [0 1 -1 0 0 0 0];

internalField   nonuniform List<vector> 
124215
(
(1.32523e-11 1.32523e-11 -500)
(1.32407e-13 1.32268e-11 -500)
(-4.13583e-16 1.32268e-11 -500)
(2.09499e-24 1.32268e-11 -500)
(1.53536e-29 1.32268e-11 -500)
(-3.94107e-29 1.32268e-11 -500)
(1.11474e-14 1.32268e-11 -500)
(-1.49655e-13 1.30807e-11 -500)
(-9.08765e-13 1.11597e-11 -500)
(-1.32092e-12 8.86158e-12 -500)
(5.13279e-13 8.02494e-12 -500)
(2.07692e-12 1.03947e-11 -500)
(2.44411e-20 1.32268e-11 -500)
(3.79645e-24 1.32268e-11 -500)
(1.14714e-28 1.32268e-11 -500)
(-1.52639e-29 1.32268e-11 -500)
(-2.09496e-24 1.32268e-11 -500)
(-1.04439e-21 1.32268e-11 -500)
(2.44134e-14 1.32268e-11 -500)
(-1.3412e-11 1.32523e-11 -500)
(1.32268e-11 1.32889e-13 -500)
(1.58579e-13 1.58579e-13 -500)
(-1.20785e-16 1.58579e-13 -500)
(6.95266e-25 1.58579e-13 -500)
(8.68952e-32 1.58579e-13 -500)
(-7.11708e-29 1.58579e-13 -500)
(-4.63903e-24 1.58579e-13 -500)
(-7.73191e-16 1.58514e-13 -500)
(-5.95326e-13 1.58518e-12 -500)
(-3.90069e-13 1.88983e-12 -500)
(2.65441e-13 2.55123e-12 -500)
(4.54787e-13 2.08268e-12 -500)
(6.73621e-23 1.58579e-13 -500)
(2.66203e-24 1.58579e-13 -500)
(4.00787e-31 1.58579e-13 -500)
(-5.77267e-32 1.58579e-13 -500)
(-6.95265e-25 1.58579e-13 -500)
(-2.297e-23 1.58579e-13 -500)
(1.77573e-15 1.58579e-13 -500)
(-1.33885e-11 1.32889e-13 -500)
(1.32268e-11 -4.18171e-16 -500)
(1.58579e-13 -1.20784e-16 -500)
(-1.20776e-16 -1.20724e-16 -500)
(6.96087e-25 -1.20724e-16 -500)
(3.30996e-29 -1.20724e-16 -500)
(-8.00258e-29 -1.20724e-16 -500)
(2.52103e-15 -1.20724e-16 -500)
(-9.24334e-14 -1.01436e-14 -500)
(-8.81429e-13 -2.1251e-13 -500)
(-5.80401e-13 -9.0555e-13 -500)
(9.34762e-13 -1.01142e-13 -500)
(1.53134e-12 6.64998e-14 -500)
(9.80732e-22 -1.20724e-16 -500)
(6.86314e-25 -1.20724e-16 -500)
(1.53112e-29 -1.20724e-16 -500)
(-3.30679e-29 -1.20724e-16 -500)
(-6.95679e-25 -1.20724e-16 -500)
(-8.38407e-21 -1.20724e-16 -500)
(1.77573e-15 -1.20784e-16 -500)
(-1.33885e-11 -4.18171e-16 -500)
(1.32268e-11 2.73318e-23 -500)
(1.58579e-13 2.73162e-23 -500)
(-1.20776e-16 2.73499e-23 -500)
(6.96087e-25 2.73499e-23 -500)
(3.3101e-29 2.73499e-23 -500)
(-2.33564e-29 2.73499e-23 -500)
(2.10632e-15 2.73502e-23 -500)
(-2.78019e-13 -7.08632e-14 -500)
(-1.97711e-12 -5.57167e-13 -500)
(-3.6728e-13 -1.37846e-12 -500)
(1.62382e-12 -5.20246e-13 -500)
(3.02388e-13 -1.23917e-13 -500)
(-7.33136e-16 3.04526e-24 -500)
(4.24606e-24 2.735e-23 -500)
(1.5879e-29 2.73499e-23 -500)
(-3.30569e-29 2.73499e-23 -500)
(-6.95679e-25 2.73499e-23 -500)
(-8.38407e-21 2.73499e-23 -500)
(1.77573e-15 2.73162e-23 -500)
(-1.33885e-11 2.73318e-23 -500)
(1.32268e-11 9.33424e-29 -500)
(1.58579e-13 2.14601e-29 -500)
(-1.20776e-16 2.27548e-27 -500)
(6.96087e-25 2.27439e-27 -500)
(3.30794e-29 2.27569e-27 -500)
(-5.71228e-29 2.27489e-27 -500)
(1.44796e-15 9.41598e-28 -500)
(-3.64804e-13 -3.64592e-14 -500)
(-3.31599e-12 -1.00556e-13 -500)
(-1.21516e-12 1.66019e-13 -500)
(2.27534e-12 -3.94801e-13 -500)
(2.13591e-12 -1.93549e-13 -500)
(-2.79455e-17 4.13549e-23 -500)
(1.79047e-24 2.14977e-27 -500)
(2.82393e-31 2.27365e-27 -500)
(-3.30654e-29 2.27351e-27 -500)
(-6.95679e-25 2.27595e-27 -500)
(-8.38407e-21 2.27437e-27 -500)
(1.77573e-15 1.90322e-29 -500)
(-1.33885e-11 9.36982e-29 -500)
(1.32268e-11 -3.39848e-27 -500)
(1.58579e-13 1.09462e-27 -500)
(-1.20776e-16 -1.74262e-27 -500)
(6.96087e-25 -3.47364e-27 -500)
(3.30963e-29 -2.79766e-27 -500)
(-8.9063e-29 -1.90035e-27 -500)
(8.86453e-15 -1.64404e-27 -500)
(-7.23868e-14 1.81521e-22 -500)
(-2.36387e-12 2.02024e-13 -500)
(-8.70805e-13 2.88842e-13 -500)
(1.60804e-12 -1.29269e-13 -500)
(1.28189e-12 -1.21938e-13 -500)
(1.96064e-14 -1.26041e-22 -500)
(4.2947e-24 -5.48681e-27 -500)
(3.90803e-29 -3.7012e-27 -500)
(-3.30461e-29 -3.97403e-27 -500)
(-6.95679e-25 -4.36921e-28 -500)
(-8.38407e-21 -2.47161e-27 -500)
(1.77573e-15 -1.00597e-27 -500)
(-1.33885e-11 -3.3893e-27 -500)
(1.32268e-11 8.43768e-15 -500)
(1.58579e-13 -1.45826e-23 -500)
(-1.20776e-16 -7.00422e-23 -500)
(6.9604e-25 8.38549e-15 -500)
(9.09677e-29 7.82842e-16 -500)
(-8.32404e-29 2.96777e-15 -500)
(-2.12724e-17 -4.39836e-23 -500)
(-3.40454e-13 4.56989e-24 -500)
(-2.80002e-12 2.20465e-14 -500)
(-1.17261e-12 -2.14992e-13 -500)
(1.83402e-12 -9.96462e-13 -500)
(2.01564e-12 -3.10266e-13 -500)
(2.06039e-15 -3.74747e-23 -500)
(6.17371e-24 -2.61728e-22 -500)
(8.79425e-29 -1.46741e-22 -500)
(-5.51889e-30 6.6941e-15 -500)
(-6.95673e-25 -1.30784e-15 -500)
(-8.38407e-21 6.74263e-15 -500)
(1.77573e-15 -1.34442e-22 -500)
(-1.33885e-11 4.62251e-15 -500)
(1.31104e-11 -1.27788e-13 -500)
(1.58547e-13 -2.2072e-16 -500)
(-1.20771e-16 7.80775e-15 -500)
(-2.43035e-14 -1.7657e-13 -500)
(1.71103e-15 -3.28761e-13 -500)
(-1.21546e-14 -2.52478e-13 -500)
(5.1598e-19 3.62874e-15 -500)
(-1.01673e-14 5.13636e-15 -500)
(-2.55522e-12 1.53105e-13 -500)
(-1.65371e-12 6.54586e-13 -500)
(1.51786e-12 -5.5621e-14 -500)
(3.19668e-12 -2.6226e-14 -500)
(-2.2715e-17 3.1444e-15 -500)
(-1.50175e-16 -5.44789e-15 -500)
(9.72845e-21 2.87987e-15 -500)
(-1.18131e-14 -2.34048e-13 -500)
(6.38291e-14 -6.30808e-13 -500)
(7.36117e-14 -1.86842e-13 -500)
(9.553e-16 5.13673e-15 -500)
(-1.33833e-11 -7.13598e-14 -500)
(1.11838e-11 -1.0924e-12 -500)
(1.65868e-12 -9.81205e-13 -500)
(-3.06378e-13 -3.11319e-13 -500)
(-3.66284e-13 -2.32359e-12 -500)
(4.43042e-14 -2.04351e-12 -500)
(-8.25616e-14 -2.04705e-12 -500)
(1.7649e-13 -2.70891e-12 -500)
(-1.50545e-13 -4.22075e-13 -500)
(-1.53906e-12 -2.5845e-12 -500)
(-9.93582e-13 -4.10696e-13 -500)
(9.46222e-13 5.01368e-13 -500)
(1.76872e-12 -1.82565e-12 -500)
(4.99836e-14 -6.99649e-13 -500)
(-5.30944e-13 -1.98846e-12 -500)
(-2.02941e-13 -2.41502e-12 -500)
(-2.37915e-13 -3.36651e-12 -500)
(4.83395e-13 -3.97516e-12 -500)
(6.18833e-13 -1.53231e-12 -500)
(-5.82929e-13 -6.35299e-13 -500)
(-1.20966e-11 -3.12808e-12 -500)
(8.12547e-12 -1.87514e-12 -500)
(2.36745e-12 -1.01396e-12 -500)
(-8.93573e-13 -2.68824e-13 -500)
(-1.2853e-12 -7.33432e-13 -500)
(-1.38635e-13 -2.79907e-13 -500)
(-6.11175e-14 -2.13282e-12 -500)
(1.07933e-12 -9.00559e-13 -500)
(-7.77898e-13 -6.71064e-13 -500)
(-1.54847e-12 -3.40291e-13 -500)
(1.57613e-12 3.71834e-13 -500)
(1.69665e-14 -6.10674e-13 -500)
(3.58542e-13 -1.45171e-12 -500)
(5.65161e-13 -1.41459e-12 -500)
(-1.0585e-12 -5.23391e-13 -500)
(-1.1348e-12 -4.96213e-13 -500)
(-1.15793e-12 -1.05858e-12 -500)
(1.12515e-12 -1.48451e-12 -500)
(1.91551e-12 -6.7087e-14 -500)
(-1.63758e-12 -6.07207e-13 -500)
(-7.85075e-12 -1.02664e-12 -500)
(7.47994e-12 6.46306e-13 -500)
(3.15317e-12 7.58752e-13 -500)
(1.64914e-13 5.72045e-13 -500)
(-4.27265e-14 1.5149e-12 -500)
(-1.26231e-12 1.46777e-12 -500)
(-2.60332e-13 1.78314e-12 -500)
(1.16418e-12 1.60738e-12 -500)
(-6.36916e-14 5.86986e-13 -500)
(-3.44908e-13 1.76748e-12 -500)
(-1.26314e-12 -3.61754e-14 -500)
(-6.4857e-13 -3.49341e-14 -500)
(8.6364e-13 1.61503e-12 -500)
(1.52029e-12 9.49682e-13 -500)
(1.00085e-12 1.30386e-12 -500)
(-9.85335e-13 1.89134e-12 -500)
(-1.00689e-12 2.32015e-12 -500)
(1.35323e-12 2.82372e-12 -500)
(7.47971e-13 1.37584e-12 -500)
(-2.87819e-12 7.70088e-13 -500)
(-8.30731e-12 1.78406e-12 -500)
(1.01891e-11 3.0855e-12 -500)
(2.23649e-12 1.5346e-12 -500)
(4.4931e-14 2.27931e-13 -500)
(6.12751e-14 1.36221e-12 -500)
(-5.31808e-13 5.69435e-14 -500)
(-1.45814e-13 4.12838e-12 -500)
(4.61177e-13 6.27428e-13 -500)
(1.93815e-14 1.3447e-12 -500)
(-2.37723e-12 6.52059e-13 -500)
(-1.2042e-12 2.53106e-13 -500)
(1.36671e-12 8.12845e-13 -500)
(1.44204e-12 2.31479e-12 -500)
(3.44484e-13 2.05121e-12 -500)
(3.15155e-13 9.34564e-13 -500)
(-6.98587e-14 1.69606e-13 -500)
(-5.11062e-13 2.23883e-12 -500)
(2.5849e-13 2.60024e-12 -500)
(2.26707e-13 5.28917e-14 -500)
(-6.92426e-13 1.20718e-12 -500)
(-1.19408e-11 2.25782e-12 -500)
(1.32268e-11 1.30658e-19 -500)
(1.58579e-13 1.78494e-15 -500)
(-1.20776e-16 4.44503e-16 -500)
(5.75266e-24 -3.53915e-18 -500)
(-2.07343e-15 8.61092e-15 -500)
(-5.12193e-25 8.61714e-20 -500)
(-4.71283e-24 4.64029e-15 -500)
(-1.25597e-15 1.18203e-21 -500)
(-8.39149e-13 1.01519e-13 -500)
(-1.27407e-12 3.26412e-13 -500)
(9.28889e-13 7.40137e-13 -500)
(1.69796e-12 2.14586e-13 -500)
(2.17748e-14 8.73657e-21 -500)
(2.76682e-16 2.2112e-14 -500)
(-2.90454e-24 -1.65116e-14 -500)
(1.40172e-24 -1.53729e-15 -500)
(3.14135e-24 4.04992e-20 -500)
(-8.3851e-21 5.2513e-15 -500)
(1.77573e-15 1.78495e-15 -500)
(-1.33885e-11 -5.06475e-16 -500)
(1.32268e-11 1.72288e-22 -500)
(1.58579e-13 5.77191e-23 -500)
(-1.20776e-16 1.40873e-22 -500)
(6.96192e-25 1.46445e-22 -500)
(6.63633e-29 1.08758e-23 -500)
(-7.20145e-29 6.68671e-23 -500)
(-1.14623e-24 6.05141e-23 -500)
(2.66478e-15 8.90583e-23 -500)
(-2.85382e-12 -1.58891e-13 -500)
(-6.22166e-13 -1.77173e-13 -500)
(1.83325e-12 7.82618e-13 -500)
(1.02268e-12 1.79921e-13 -500)
(1.90092e-14 1.05268e-22 -500)
(2.34414e-24 8.10859e-23 -500)
(-3.31823e-29 6.05995e-23 -500)
(-3.27955e-29 9.48901e-23 -500)
(-6.95673e-25 8.69055e-23 -500)
(-8.38407e-21 6.58815e-23 -500)
(1.77573e-15 4.47031e-23 -500)
(-1.33885e-11 1.63766e-22 -500)
(1.32268e-11 4.61759e-27 -500)
(1.58579e-13 3.34901e-28 -500)
(-1.20776e-16 3.35746e-27 -500)
(6.96087e-25 3.97462e-27 -500)
(3.3105e-29 1.84512e-29 -500)
(-1.04293e-28 3.30298e-27 -500)
(1.04463e-14 -5.97178e-28 -500)
(-1.31512e-13 1.30331e-14 -500)
(-1.67018e-12 1.97593e-13 -500)
(-4.63558e-13 7.1936e-13 -500)
(9.5825e-13 -5.85234e-14 -500)
(6.26316e-13 1.16892e-13 -500)
(2.62273e-15 2.4239e-23 -500)
(3.49236e-24 5.75551e-28 -500)
(1.34941e-29 -3.27932e-28 -500)
(-3.30536e-29 1.55461e-27 -500)
(-6.95679e-25 6.56412e-28 -500)
(-8.38407e-21 2.79542e-27 -500)
(1.77573e-15 1.02753e-27 -500)
(-1.33885e-11 2.86383e-27 -500)
(1.32268e-11 -9.10676e-29 -500)
(1.58579e-13 -1.83756e-29 -500)
(-1.20776e-16 -2.27152e-27 -500)
(6.96087e-25 -2.27168e-27 -500)
(3.30871e-29 -2.27422e-27 -500)
(-1.04367e-28 -2.27299e-27 -500)
(-6.43721e-24 -2.26419e-27 -500)
(-8.59049e-16 3.07786e-16 -500)
(-1.06769e-12 2.56042e-13 -500)
(-8.50249e-13 5.54976e-13 -500)
(9.39251e-13 4.79962e-13 -500)
(1.18581e-12 1.73131e-13 -500)
(2.53101e-17 1.50463e-23 -500)
(1.29015e-24 -1.89745e-27 -500)
(1.99757e-31 -2.27316e-27 -500)
(-3.30666e-29 -2.27245e-27 -500)
(-6.95679e-25 -2.27307e-27 -500)
(-8.38407e-21 -2.27338e-27 -500)
(1.77573e-15 -1.84928e-29 -500)
(-1.33885e-11 -9.11905e-29 -500)
(1.32268e-11 -2.73317e-23 -500)
(1.58579e-13 -2.73161e-23 -500)
(-1.20776e-16 -2.73454e-23 -500)
(6.96087e-25 -2.73454e-23 -500)
(3.30943e-29 -2.73454e-23 -500)
(-1.04099e-28 -2.73454e-23 -500)
(-3.86495e-24 -2.73451e-23 -500)
(3.78028e-15 9.07312e-23 -500)
(-6.75827e-13 1.70486e-13 -500)
(-1.34823e-13 3.57941e-13 -500)
(5.45806e-13 -3.4035e-13 -500)
(-3.39123e-13 -1.59709e-13 -500)
(1.03945e-14 -1.28497e-22 -500)
(2.10993e-24 -2.73454e-23 -500)
(2.82693e-31 -2.73454e-23 -500)
(-3.30665e-29 -2.73454e-23 -500)
(-6.95679e-25 -2.73454e-23 -500)
(-8.38407e-21 -2.73454e-23 -500)
(1.77573e-15 -2.73161e-23 -500)
(-1.33885e-11 -2.73317e-23 -500)
(1.32268e-11 -1.58886e-21 -500)
(1.58579e-13 -5.86922e-22 -500)
(-1.20776e-16 -6.11529e-20 -500)
(6.96087e-25 -6.1153e-20 -500)
(3.30572e-29 -6.1153e-20 -500)
(-5.91498e-29 -6.1153e-20 -500)
(-2.70302e-24 -6.1153e-20 -500)
(2.38388e-15 -6.1213e-20 -500)
(-5.63335e-13 2.12646e-13 -500)
(-9.90668e-13 4.86809e-13 -500)
(4.30973e-13 -7.68236e-13 -500)
(1.78062e-12 -2.05531e-13 -500)
(3.16995e-15 -6.11807e-20 -500)
(5.43189e-24 -6.1153e-20 -500)
(9.98751e-31 -6.1153e-20 -500)
(-3.30093e-29 -6.1153e-20 -500)
(-6.95678e-25 -6.1153e-20 -500)
(-8.37344e-21 -6.11529e-20 -500)
(1.77573e-15 -5.86926e-22 -500)
(-1.33885e-11 -1.58886e-21 -500)
(1.32268e-11 2.37339e-14 -500)
(1.58577e-13 1.7758e-15 -500)
(-1.20785e-16 1.77574e-15 -500)
(6.96218e-25 1.77574e-15 -500)
(1.2678e-31 1.77574e-15 -500)
(-5.60799e-29 1.77574e-15 -500)
(-6.25343e-24 1.77574e-15 -500)
(6.77443e-14 -4.36833e-14 -500)
(4.72979e-13 -5.12286e-13 -500)
(-5.7104e-13 -1.85441e-12 -500)
(-3.78071e-14 -9.08201e-13 -500)
(9.17091e-13 -7.04903e-14 -500)
(-7.70747e-18 1.77574e-15 -500)
(4.53663e-24 1.77574e-15 -500)
(5.92602e-29 1.77574e-15 -500)
(-9.9541e-32 1.77574e-15 -500)
(-6.96217e-25 1.77574e-15 -500)
(-2.64837e-23 1.77574e-15 -500)
(1.77718e-15 1.7758e-15 -500)
(-1.33885e-11 2.37339e-14 -500)
(1.32523e-11 -1.3412e-11 -500)
(1.32888e-13 -1.33885e-11 -500)
(-4.18171e-16 -1.33885e-11 -500)
(2.17267e-24 -1.33885e-11 -500)
(1.5677e-29 -1.33885e-11 -500)
(-3.43877e-31 -1.33885e-11 -500)
(2.40412e-15 -1.33885e-11 -500)
(-5.15352e-13 -1.32893e-11 -500)
(-2.85542e-12 -1.2396e-11 -500)
(-1.54761e-13 -9.72846e-12 -500)
(1.86045e-12 -9.88415e-12 -500)
(5.68936e-13 -1.24339e-11 -500)
(-9.73728e-15 -1.33885e-11 -500)
(3.21334e-24 -1.33885e-11 -500)
(4.36761e-29 -1.33885e-11 -500)
(-1.55833e-29 -1.33885e-11 -500)
(-2.17264e-24 -1.33885e-11 -500)
(-1.06644e-21 -1.33885e-11 -500)
(2.3734e-14 -1.33885e-11 -500)
(-1.3412e-11 -1.3412e-11 -500)
(5.01875e-12 5.01875e-12 -500)
(-7.03181e-14 5.01485e-12 -500)
(-4.85275e-15 5.01485e-12 -500)
(1.14109e-24 5.01485e-12 -500)
(1.80094e-29 5.01485e-12 -500)
(-4.50413e-29 5.01485e-12 -500)
(1.33458e-14 5.01485e-12 -500)
(-1.12864e-13 4.96784e-12 -500)
(-1.21742e-12 4.40863e-12 -500)
(-1.10267e-12 3.73481e-12 -500)
(7.02273e-13 3.67374e-12 -500)
(1.41282e-12 4.54948e-12 -500)
(2.88712e-20 5.01485e-12 -500)
(2.32973e-24 5.01485e-12 -500)
(1.35754e-28 5.01485e-12 -500)
(-1.79766e-29 5.01485e-12 -500)
(-1.14105e-24 5.01485e-12 -500)
(-1.20323e-21 5.01485e-12 -500)
(5.32256e-15 5.01485e-12 -500)
(-4.95585e-12 5.01875e-12 -500)
(5.01485e-12 -7.08496e-14 -500)
(-6.34739e-14 -6.3474e-14 -500)
(-2.52103e-15 -6.34739e-14 -500)
(9.36319e-25 -6.34739e-14 -500)
(1.10595e-31 -6.34739e-14 -500)
(-8.27624e-29 -6.34739e-14 -500)
(-4.26307e-24 -6.34739e-14 -500)
(-4.29233e-15 -6.34111e-14 -500)
(-8.361e-13 2.58347e-13 -500)
(-6.0471e-13 6.80422e-13 -500)
(3.97061e-13 8.12813e-13 -500)
(7.64611e-13 1.16559e-13 -500)
(6.65286e-23 -6.34739e-14 -500)
(2.85908e-24 -6.34739e-14 -500)
(4.37153e-31 -6.34739e-14 -500)
(-6.78976e-32 -6.34739e-14 -500)
(-9.36318e-25 -6.34739e-14 -500)
(-2.48448e-23 -6.34739e-14 -500)
(3.83774e-15 -6.3474e-14 -500)
(-4.95089e-12 -7.08496e-14 -500)
(5.01485e-12 -4.88178e-15 -500)
(-6.34739e-14 -2.52103e-15 -500)
(-2.52102e-15 -2.52096e-15 -500)
(9.37275e-25 -2.52096e-15 -500)
(3.85513e-29 -2.52096e-15 -500)
(-1.13877e-28 -2.52096e-15 -500)
(-6.20594e-24 -2.52096e-15 -500)
(1.09386e-14 -2.52096e-15 -500)
(-8.16505e-13 -1.04694e-13 -500)
(-7.92974e-13 -6.37711e-13 -500)
(6.13939e-13 -2.7179e-13 -500)
(8.59517e-13 -8.05506e-14 -500)
(1.35639e-22 -2.52096e-15 -500)
(2.72125e-25 -2.52096e-15 -500)
(1.78095e-29 -2.52096e-15 -500)
(-3.85178e-29 -2.52096e-15 -500)
(-9.368e-25 -2.52096e-15 -500)
(-9.76256e-21 -2.52096e-15 -500)
(3.83774e-15 -2.52103e-15 -500)
(-4.95089e-12 -4.88178e-15 -500)
(5.01485e-12 -1.79555e-23 -500)
(-6.34739e-14 4.38282e-23 -500)
(-2.52102e-15 4.38677e-23 -500)
(9.37275e-25 4.38677e-23 -500)
(3.85656e-29 4.38677e-23 -500)
(-2.71396e-29 4.38677e-23 -500)
(-1.51945e-24 4.38682e-23 -500)
(5.46736e-14 1.31696e-14 -500)
(-1.86396e-12 -7.73862e-14 -500)
(-1.07486e-12 -7.73741e-13 -500)
(1.41796e-12 -2.03878e-13 -500)
(1.55421e-12 -4.23785e-14 -500)
(1.26625e-21 1.93632e-23 -500)
(3.30004e-24 4.38678e-23 -500)
(1.82216e-29 4.38677e-23 -500)
(-3.85114e-29 4.38677e-23 -500)
(-9.368e-25 4.38677e-23 -500)
(-9.76256e-21 4.38677e-23 -500)
(3.83774e-15 4.38282e-23 -500)
(-4.95089e-12 -1.79555e-23 -500)
(5.01485e-12 7.36749e-29 -500)
(-6.34739e-14 2.62396e-29 -500)
(-2.52102e-15 2.66125e-27 -500)
(9.37275e-25 2.66127e-27 -500)
(3.85613e-29 2.66234e-27 -500)
(-6.57776e-29 2.66209e-27 -500)
(-3.82824e-24 1.10722e-27 -500)
(9.03664e-14 4.72697e-15 -500)
(-2.19196e-12 2.36965e-13 -500)
(-1.03295e-12 5.77713e-13 -500)
(1.54891e-12 1.29791e-13 -500)
(1.24567e-12 3.22341e-14 -500)
(1.28121e-16 2.40974e-23 -500)
(3.81897e-25 2.5099e-27 -500)
(4.77866e-32 2.66083e-27 -500)
(-3.85213e-29 2.65891e-27 -500)
(-9.368e-25 2.66261e-27 -500)
(-9.76256e-21 2.66077e-27 -500)
(3.83774e-15 2.36847e-29 -500)
(-4.95089e-12 7.38932e-29 -500)
(5.01485e-12 -3.93732e-27 -500)
(-6.34739e-14 -3.80352e-28 -500)
(-2.52102e-15 -2.47715e-27 -500)
(9.37275e-25 -4.0199e-27 -500)
(3.85669e-29 -3.41195e-27 -500)
(-1.03702e-28 -2.17715e-27 -500)
(-5.9881e-24 -2.7727e-27 -500)
(4.0684e-14 9.59957e-23 -500)
(-4.394e-13 3.8982e-13 -500)
(-7.74413e-13 1.374e-12 -500)
(6.2199e-13 2.09675e-13 -500)
(1.22764e-12 -5.25615e-14 -500)
(3.50832e-21 -1.61445e-22 -500)
(2.89442e-24 -6.45696e-27 -500)
(4.5144e-29 -4.27741e-27 -500)
(-3.85028e-29 -4.6395e-27 -500)
(-9.368e-25 -4.87536e-28 -500)
(-9.76256e-21 -3.03203e-27 -500)
(3.83774e-15 -1.19007e-27 -500)
(-4.95089e-12 -3.93225e-27 -500)
(5.01485e-12 2.49888e-15 -500)
(-6.34739e-14 -6.89298e-23 -500)
(-2.52102e-15 -7.99287e-23 -500)
(9.37221e-25 -6.1935e-23 -500)
(1.0619e-28 -3.0352e-23 -500)
(-9.63404e-29 -1.12063e-23 -500)
(-2.57971e-24 -5.64477e-23 -500)
(7.2483e-14 -1.96258e-23 -500)
(5.57628e-13 -1.04988e-13 -500)
(-6.7861e-13 -1.89344e-13 -500)
(1.46607e-13 4.15739e-13 -500)
(1.29053e-12 1.38389e-13 -500)
(2.81232e-20 -8.57739e-23 -500)
(7.22078e-24 -2.0005e-22 -500)
(1.21918e-28 -9.13999e-23 -500)
(-6.11485e-30 -1.9906e-22 -500)
(-9.36799e-25 -1.55727e-23 -500)
(-9.76256e-21 -9.50922e-23 -500)
(3.83774e-15 -1.91663e-22 -500)
(-4.95089e-12 1.05011e-17 -500)
(5.00229e-12 -3.69062e-14 -500)
(-6.34425e-14 3.32979e-15 -500)
(-2.52101e-15 1.35782e-14 -500)
(-3.24396e-22 4.50992e-14 -500)
(1.46907e-19 7.79546e-14 -500)
(-2.28852e-20 5.71965e-14 -500)
(-6.03139e-24 3.63271e-15 -500)
(8.54796e-15 8.74488e-15 -500)
(-1.06139e-12 -2.32106e-13 -500)
(-3.80428e-13 -6.72454e-13 -500)
(7.17406e-13 1.63056e-13 -500)
(3.37525e-13 1.14631e-13 -500)
(4.40917e-16 8.74149e-15 -500)
(-2.24038e-19 1.25009e-14 -500)
(1.14825e-20 1.029e-14 -500)
(4.92947e-20 5.32545e-14 -500)
(-1.07552e-14 1.19083e-13 -500)
(-1.16296e-14 4.98369e-14 -500)
(3.87396e-15 4.66605e-15 -500)
(-4.94832e-12 -6.35484e-15 -500)
(4.46322e-12 -1.22786e-12 -500)
(1.66617e-13 -1.39152e-12 -500)
(3.54375e-14 -8.71455e-13 -500)
(2.69158e-15 -1.37295e-12 -500)
(2.23484e-13 -1.13923e-12 -500)
(-7.36584e-14 -9.67102e-14 -500)
(-1.18133e-13 -1.93405e-12 -500)
(7.58247e-14 -6.96375e-13 -500)
(-6.22618e-13 -2.78774e-13 -500)
(-4.2816e-13 -1.70905e-13 -500)
(5.89317e-13 -3.214e-13 -500)
(3.66628e-13 -6.80797e-13 -500)
(3.6423e-15 -9.4256e-13 -500)
(2.10092e-14 -1.47417e-12 -500)
(6.72555e-14 -1.06627e-12 -500)
(1.8283e-13 -1.29575e-12 -500)
(9.57964e-14 -1.917e-13 -500)
(-1.41051e-13 2.3515e-13 -500)
(-1.42673e-13 -9.85203e-13 -500)
(-4.62405e-12 -1.83201e-13 -500)
(3.5517e-12 -6.11443e-13 -500)
(1.01073e-12 -6.5577e-13 -500)
(-6.19466e-14 -1.11373e-12 -500)
(-1.79509e-13 -2.23153e-12 -500)
(7.37408e-13 -8.84777e-13 -500)
(-3.69193e-13 -9.67912e-13 -500)
(7.10159e-14 -6.62413e-13 -500)
(8.03667e-13 -1.27874e-12 -500)
(-5.029e-13 -3.55935e-13 -500)
(-2.91068e-13 -2.27929e-13 -500)
(-5.18071e-14 -8.17962e-13 -500)
(1.45815e-13 -8.28539e-13 -500)
(-2.61646e-13 -5.0322e-13 -500)
(-3.35489e-13 -4.88465e-13 -500)
(-3.30616e-14 -7.90298e-13 -500)
(4.01388e-13 -7.59069e-13 -500)
(1.04511e-12 -5.15017e-13 -500)
(-2.2412e-14 2.86928e-14 -500)
(-9.69607e-13 -3.28465e-13 -500)
(-4.34396e-12 3.69188e-13 -500)
(4.35601e-12 8.23962e-13 -500)
(1.56559e-13 7.86736e-13 -500)
(-1.45343e-12 7.39736e-13 -500)
(2.37569e-13 1.16112e-12 -500)
(8.92077e-13 8.40962e-13 -500)
(2.05772e-13 4.68781e-13 -500)
(-1.16986e-13 1.20799e-12 -500)
(3.03359e-13 3.87804e-13 -500)
(2.3041e-13 4.86872e-13 -500)
(-1.02248e-12 1.82733e-13 -500)
(-2.42302e-13 6.40365e-14 -500)
(1.06432e-12 7.42683e-13 -500)
(3.34542e-13 5.665e-13 -500)
(-3.2644e-13 1.10957e-12 -500)
(-9.18746e-14 9.5369e-13 -500)
(3.60515e-13 1.21421e-12 -500)
(6.56184e-13 6.40869e-13 -500)
(1.28544e-13 1.58561e-13 -500)
(-3.8928e-13 5.35834e-13 -500)
(-5.30714e-12 5.0907e-13 -500)
(4.95937e-12 2.09754e-13 -500)
(-3.0415e-13 7.18739e-13 -500)
(-4.24243e-13 1.55343e-12 -500)
(1.0492e-13 3.68085e-12 -500)
(2.77597e-13 9.8685e-13 -500)
(2.46388e-14 1.44604e-12 -500)
(-1.51936e-13 6.65905e-13 -500)
(-2.12901e-14 2.12436e-12 -500)
(-5.37837e-13 3.10108e-13 -500)
(-5.75339e-13 -3.70921e-13 -500)
(6.11396e-13 6.25211e-13 -500)
(7.71466e-13 1.09222e-12 -500)
(1.66092e-13 4.06929e-13 -500)
(-1.42708e-13 6.20495e-13 -500)
(4.10065e-14 1.70185e-12 -500)
(2.57745e-13 8.63014e-13 -500)
(1.64325e-14 6.76513e-13 -500)
(-6.50653e-14 7.6005e-14 -500)
(1.64359e-13 5.39617e-13 -500)
(-4.8633e-12 -1.03207e-12 -500)
(5.01485e-12 1.46314e-19 -500)
(-6.34739e-14 9.75205e-21 -500)
(-2.52102e-15 -5.65984e-19 -500)
(8.58833e-24 -8.37515e-17 -500)
(-1.96292e-25 -1.28453e-21 -500)
(-5.54613e-24 9.44644e-20 -500)
(-5.32491e-25 9.9238e-21 -500)
(2.16854e-15 -1.3369e-21 -500)
(-2.22243e-12 1.58557e-13 -500)
(-9.34157e-13 2.98431e-13 -500)
(1.40036e-12 2.04842e-13 -500)
(9.65306e-13 2.65816e-14 -500)
(2.80439e-20 -9.02917e-20 -500)
(3.76991e-24 1.01914e-20 -500)
(-4.49699e-24 7.83211e-22 -500)
(1.40836e-24 -3.00847e-15 -500)
(1.55725e-24 -1.62276e-18 -500)
(-9.76441e-21 7.76066e-20 -500)
(3.83774e-15 2.24354e-20 -500)
(-4.95089e-12 -7.24861e-18 -500)
(5.01485e-12 7.14087e-23 -500)
(-6.34739e-14 9.33233e-23 -500)
(-2.52102e-15 1.10047e-22 -500)
(9.37397e-25 1.62955e-22 -500)
(5.62831e-29 -8.75079e-23 -500)
(-8.466e-29 1.13575e-22 -500)
(-1.28744e-24 1.04025e-22 -500)
(5.20729e-16 8.09945e-23 -500)
(-5.94696e-14 1.72262e-13 -500)
(-4.25328e-13 6.88521e-13 -500)
(6.38342e-13 -6.17802e-14 -500)
(6.05681e-13 -1.16752e-13 -500)
(-1.38904e-16 9.32444e-23 -500)
(5.0165e-25 6.02029e-23 -500)
(-5.955e-29 6.2135e-23 -500)
(-3.82497e-29 6.43438e-23 -500)
(-9.36793e-25 1.02756e-22 -500)
(-9.76256e-21 9.1466e-23 -500)
(3.83774e-15 5.99581e-23 -500)
(-4.95089e-12 9.57071e-23 -500)
(5.01485e-12 5.25889e-27 -500)
(-6.34739e-14 5.71158e-28 -500)
(-2.52102e-15 3.88615e-27 -500)
(9.37275e-25 4.63539e-27 -500)
(3.85518e-29 -4.5877e-29 -500)
(-1.21427e-28 3.9787e-27 -500)
(-5.6768e-24 -5.04551e-28 -500)
(3.63682e-14 -1.55616e-22 -500)
(-8.21585e-13 -2.03645e-13 -500)
(-1.04243e-12 -5.39199e-13 -500)
(8.67938e-13 -3.17841e-13 -500)
(1.86089e-12 -2.91858e-14 -500)
(-1.66591e-15 -1.22915e-23 -500)
(1.88429e-24 6.28533e-28 -500)
(1.53929e-29 4.94593e-29 -500)
(-3.8509e-29 1.88511e-27 -500)
(-9.368e-25 7.65761e-28 -500)
(-9.76256e-21 3.37559e-27 -500)
(3.83774e-15 1.36629e-27 -500)
(-4.95089e-12 3.22529e-27 -500)
(5.01485e-12 -7.6596e-29 -500)
(-6.34739e-14 -2.22993e-29 -500)
(-2.52102e-15 -2.65673e-27 -500)
(9.37275e-25 -2.65604e-27 -500)
(3.85461e-29 -2.66098e-27 -500)
(-1.21599e-28 -2.65669e-27 -500)
(-7.74897e-24 -2.65387e-27 -500)
(1.16006e-14 -1.40152e-24 -500)
(-1.78744e-12 -5.69176e-15 -500)
(-1.01698e-12 1.03709e-13 -500)
(1.22983e-12 2.79361e-14 -500)
(1.32033e-12 -1.31778e-14 -500)
(-7.50137e-15 -1.66706e-23 -500)
(1.69509e-24 -2.23093e-27 -500)
(2.96361e-31 -2.65789e-27 -500)
(-3.85161e-29 -2.65763e-27 -500)
(-9.368e-25 -2.6576e-27 -500)
(-9.76256e-21 -2.65739e-27 -500)
(3.83774e-15 -2.28336e-29 -500)
(-4.95089e-12 -7.61322e-29 -500)
(5.01485e-12 1.79555e-23 -500)
(-6.34739e-14 -4.38282e-23 -500)
(-2.52102e-15 -4.38624e-23 -500)
(9.37275e-25 -4.38624e-23 -500)
(3.85552e-29 -4.38624e-23 -500)
(-1.21262e-28 -4.38624e-23 -500)
(-4.72541e-24 -4.3862e-23 -500)
(7.89773e-15 7.91923e-23 -500)
(-1.04637e-12 2.4774e-14 -500)
(-1.19801e-12 3.05457e-13 -500)
(8.53343e-13 -6.03796e-14 -500)
(1.86601e-12 -2.57657e-14 -500)
(-1.42695e-15 -1.06213e-22 -500)
(3.10627e-25 -4.38624e-23 -500)
(1.17536e-32 -4.38624e-23 -500)
(-3.85232e-29 -4.38624e-23 -500)
(-9.368e-25 -4.38624e-23 -500)
(-9.76256e-21 -4.38624e-23 -500)
(3.83774e-15 -4.38282e-23 -500)
(-4.95089e-12 1.79555e-23 -500)
(5.01485e-12 -9.7611e-22 -500)
(-6.34739e-14 -6.01568e-22 -500)
(-2.52102e-15 -7.1375e-20 -500)
(9.37275e-25 -7.1375e-20 -500)
(3.85124e-29 -7.1375e-20 -500)
(-6.89335e-29 -7.1375e-20 -500)
(-3.34397e-24 -7.1375e-20 -500)
(1.30696e-14 -7.15138e-20 -500)
(-1.43741e-12 -1.02811e-13 -500)
(-1.06128e-12 -2.95546e-13 -500)
(1.04618e-12 -1.13742e-13 -500)
(1.32485e-12 6.74505e-14 -500)
(-3.41584e-18 -7.1454e-20 -500)
(4.43787e-24 -7.1375e-20 -500)
(8.44524e-31 -7.1375e-20 -500)
(-3.84582e-29 -7.1375e-20 -500)
(-9.36799e-25 -7.1375e-20 -500)
(-9.75013e-21 -7.1375e-20 -500)
(3.83774e-15 -6.01573e-22 -500)
(-4.95089e-12 -9.7611e-22 -500)
(5.01485e-12 5.32379e-15 -500)
(-6.3476e-14 3.83779e-15 -500)
(-2.52103e-15 3.83772e-15 -500)
(9.37584e-25 3.83772e-15 -500)
(1.59443e-31 3.83772e-15 -500)
(-6.52099e-29 3.83772e-15 -500)
(-7.12949e-24 3.83772e-15 -500)
(3.62103e-16 5.23809e-15 -500)
(-1.60587e-12 7.95259e-14 -500)
(-1.00584e-12 -2.2798e-13 -500)
(6.29868e-13 -5.75232e-13 -500)
(1.43375e-12 -9.35764e-14 -500)
(-6.40869e-17 3.83772e-15 -500)
(3.91223e-24 3.83772e-15 -500)
(6.87664e-29 3.83772e-15 -500)
(-1.21905e-31 3.83772e-15 -500)
(-9.37583e-25 3.83772e-15 -500)
(-2.89535e-23 3.83772e-15 -500)
(3.83988e-15 3.83779e-15 -500)
(-4.95089e-12 5.32379e-15 -500)
(5.01875e-12 -4.95585e-12 -500)
(-7.08497e-14 -4.95089e-12 -500)
(-4.88178e-15 -4.95089e-12 -500)
(1.14223e-24 -4.95089e-12 -500)
(1.8039e-29 -4.95089e-12 -500)
(-4.96473e-31 -4.95089e-12 -500)
(1.99587e-17 -4.95089e-12 -500)
(5.66247e-14 -4.91879e-12 -500)
(-1.25485e-13 -4.59985e-12 -500)
(-6.3291e-13 -3.92445e-12 -500)
(5.5828e-13 -3.73758e-12 -500)
(1.15304e-12 -4.62802e-12 -500)
(-1.34022e-16 -4.95089e-12 -500)
(4.18555e-24 -4.95089e-12 -500)
(5.09799e-29 -4.95089e-12 -500)
(-1.80026e-29 -4.95089e-12 -500)
(-1.1422e-24 -4.95089e-12 -500)
(-1.20572e-21 -4.95089e-12 -500)
(5.32383e-15 -4.95089e-12 -500)
(-4.95585e-12 -4.95585e-12 -500)
(6.81996e-12 6.81996e-12 -500)
(2.23327e-14 6.82152e-12 -500)
(3.61533e-24 6.82152e-12 -500)
(1.14079e-24 6.82152e-12 -500)
(3.40658e-31 6.82152e-12 -500)
(-5.93234e-31 6.82152e-12 -500)
(2.20798e-15 6.82152e-12 -500)
(2.8775e-15 6.81916e-12 -500)
(8.34601e-14 6.3648e-12 -500)
(-1.24861e-12 5.07117e-12 -500)
(1.09684e-13 3.58999e-12 -500)
(1.90608e-12 4.89342e-12 -500)
(-8.5317e-21 6.82152e-12 -500)
(2.04394e-24 6.82152e-12 -500)
(3.06691e-31 6.82152e-12 -500)
(-3.1502e-31 6.82152e-12 -500)
(-1.14079e-24 6.82152e-12 -500)
(-3.61533e-24 6.82152e-12 -500)
(-5.92809e-15 6.82152e-12 -500)
(-6.83301e-12 6.81996e-12 -500)
(6.82152e-12 2.23314e-14 -500)
(2.24513e-14 2.24513e-14 -500)
(2.48443e-23 2.24513e-14 -500)
(9.3634e-25 2.24513e-14 -500)
(1.22119e-31 2.24513e-14 -500)
(-1.09909e-31 2.24513e-14 -500)
(-8.18711e-25 2.24513e-14 -500)
(-1.59253e-15 2.24513e-14 -500)
(-1.17171e-12 -2.59909e-13 -500)
(-7.08258e-13 -2.65309e-13 -500)
(7.56514e-13 9.04188e-13 -500)
(1.15085e-12 1.06418e-12 -500)
(1.09145e-22 2.24513e-14 -500)
(5.29007e-24 2.24513e-14 -500)
(8.63526e-31 2.24513e-14 -500)
(-5.76657e-32 2.24513e-14 -500)
(-9.36338e-25 2.24513e-14 -500)
(-2.48443e-23 2.24513e-14 -500)
(-7.43273e-15 2.24513e-14 -500)
(-6.83457e-12 2.23314e-14 -500)
(6.82152e-12 -2.26089e-22 -500)
(2.24513e-14 6.0157e-22 -500)
(2.48449e-23 6.01592e-22 -500)
(9.36339e-25 6.01592e-22 -500)
(1.07647e-31 6.01592e-22 -500)
(-6.11134e-31 6.01592e-22 -500)
(-5.30548e-24 6.01592e-22 -500)
(5.944e-15 5.65784e-22 -500)
(-1.73129e-12 -1.02291e-13 -500)
(-1.03543e-12 -1.7937e-13 -500)
(1.00062e-12 -6.52715e-13 -500)
(1.5216e-12 -6.05757e-14 -500)
(-1.39255e-20 6.30933e-22 -500)
(2.16487e-24 6.01592e-22 -500)
(4.09386e-31 6.01592e-22 -500)
(-6.55111e-32 6.01592e-22 -500)
(-9.36338e-25 6.01592e-22 -500)
(-2.48449e-23 6.01592e-22 -500)
(-7.43273e-15 6.0157e-22 -500)
(-6.83457e-12 -2.26089e-22 -500)
(6.82152e-12 -1.79589e-23 -500)
(2.24513e-14 4.38308e-23 -500)
(2.48449e-23 4.38309e-23 -500)
(9.36339e-25 4.38309e-23 -500)
(1.08357e-31 4.38309e-23 -500)
(-5.77492e-31 4.38309e-23 -500)
(-4.77706e-24 4.38309e-23 -500)
(-1.75497e-15 3.63004e-23 -500)
(-1.2193e-12 1.0602e-13 -500)
(-1.27698e-12 8.75507e-14 -500)
(9.35825e-13 3.62137e-13 -500)
(2.15412e-12 2.74054e-13 -500)
(1.13345e-22 4.36356e-23 -500)
(5.65054e-24 4.38309e-23 -500)
(9.24241e-31 4.38309e-23 -500)
(-5.70584e-32 4.38309e-23 -500)
(-9.36338e-25 4.38309e-23 -500)
(-2.48449e-23 4.38309e-23 -500)
(-7.43273e-15 4.38309e-23 -500)
(-6.83457e-12 -1.79588e-23 -500)
(6.82152e-12 -1.35457e-29 -500)
(2.24513e-14 2.60546e-29 -500)
(2.48449e-23 2.61381e-29 -500)
(9.36339e-25 2.64947e-29 -500)
(1.08259e-31 2.76059e-29 -500)
(-6.23342e-31 2.67246e-29 -500)
(-5.82608e-24 1.00142e-29 -500)
(-4.71399e-15 -6.3988e-23 -500)
(-8.07675e-13 2.0924e-13 -500)
(-5.72337e-13 4.54129e-13 -500)
(7.70727e-13 6.23956e-13 -500)
(2.95295e-13 1.5113e-13 -500)
(1.16887e-15 9.50381e-23 -500)
(2.85149e-24 6.03113e-29 -500)
(4.92125e-31 2.69025e-29 -500)
(-6.48203e-32 2.49153e-29 -500)
(-9.36338e-25 2.69929e-29 -500)
(-2.48449e-23 2.62005e-29 -500)
(-7.43273e-15 2.37929e-29 -500)
(-6.83457e-12 -1.31099e-29 -500)
(6.82152e-12 -7.27974e-29 -500)
(2.24513e-14 -5.21752e-29 -500)
(2.48449e-23 -4.82705e-29 -500)
(9.36339e-25 -4.07378e-29 -500)
(1.03875e-31 -8.76036e-30 -500)
(-8.14061e-31 -3.0653e-29 -500)
(-6.70447e-24 1.74908e-29 -500)
(-8.06773e-15 1.11173e-22 -500)
(-6.20673e-13 -1.90449e-14 -500)
(-6.7106e-13 2.56304e-13 -500)
(5.40874e-13 2.01064e-13 -500)
(1.15745e-12 -8.03037e-14 -500)
(-2.81525e-23 -5.68776e-23 -500)
(1.94772e-24 -1.1755e-28 -500)
(2.82156e-31 -3.60735e-29 -500)
(-6.33494e-32 -8.39185e-29 -500)