/*--------------------------------*- C++ -*----------------------------------*\
| =========                 |                                                 |
| \\      /  F ield         | OpenFOAM: The Open Source CFD Toolbox           |
|  \\    /   O peration     | Version:  2412                                  |
|   \\  /    A nd           | Website:  www.openfoam.com                      |
|    \\/     M anipulation  |                                                 |
\*---------------------------------------------------------------------------*/
FoamFile
{
    version     2.0;
    format      ascii;
    arch        "LSB;label=32;scalar=64";
    class       volVectorField;
    location    "0.01";
    object      U;
}
// * * * * * * * * * * * * * * * * * * * * * * * * * * * * * * * * * * * * * //

dimensions      [0 1 -1 0 0 0 0];

internalField   nonuniform List<vector> 
124215
(
(-1.92434e-12 -1.92444e-12 -500)
(-7.04153e-14 -1.9176e-12 -500)
(-9.65232e-15 -1.9176e-12 -500)
(8.84938e-25 -1.9176e-12 -500)
(9.27826e-30 -1.9176e-12 -500)
(1.23371e-29 -1.9176e-12 -500)
(-1.32656e-24 -1.9176e-12 -500)
(2.13338e-14 -1.91633e-12 -500)
(3.66289e-13 -1.6292e-12 -500)
(4.58156e-13 -7.93306e-13 -500)
(-5.43799e-13 -7.67885e-13 -500)
(-1.90401e-13 -1.85236e-12 -500)
(1.72212e-14 -1.91757e-12 -500)
(2.329e-24 -1.9176e-12 -500)
(1.06866e-29 -1.9176e-12 -500)
(-9.23388e-30 -1.9176e-12 -500)
(-8.84948e-25 -1.9176e-12 -500)
(-1.42432e-22 -1.9176e-12 -500)
(-7.68581e-16 -1.9176e-12 -500)
(2.00508e-12 -1.92444e-12 -500)
(-1.9176e-12 -7.08446e-14 -500)
(-6.35643e-14 -6.35643e-14 -500)
(-7.54566e-15 -6.35643e-14 -500)
(1.09133e-24 -6.35643e-14 -500)
(1.6665e-31 -6.35643e-14 -500)
(2.35635e-30 -6.35643e-14 -500)
(-3.88741e-25 -6.35643e-14 -500)
(9.55053e-15 -6.35018e-14 -500)
(1.52194e-12 1.27504e-14 -500)
(6.30037e-13 2.36741e-13 -500)
(-1.38546e-12 1.71669e-13 -500)
(-5.69386e-13 -1.09883e-13 -500)
(9.11816e-16 -6.3566e-14 -500)
(6.79196e-25 -6.35643e-14 -500)
(1.29125e-31 -6.35643e-14 -500)
(-1.09205e-31 -6.35643e-14 -500)
(-1.09133e-24 -6.35643e-14 -500)
(-1.93081e-23 -6.35643e-14 -500)
(-9.42154e-15 -6.35643e-14 -500)
(1.99765e-12 -7.08446e-14 -500)
(-1.9176e-12 -9.86177e-15 -500)
(-6.35643e-14 -7.54566e-15 -500)
(-7.54566e-15 -7.54566e-15 -500)
(1.09183e-24 -7.54566e-15 -500)
(3.1101e-29 -7.54566e-15 -500)
(-1.03974e-29 -7.54566e-15 -500)
(-3.30762e-24 -7.54566e-15 -500)
(3.68597e-15 -7.54566e-15 -500)
(1.04046e-12 -3.30914e-14 -500)
(7.87981e-13 2.21967e-13 -500)
(-1.05646e-12 1.48299e-12 -500)
(-3.23307e-13 3.1439e-13 -500)
(-1.29567e-15 -7.54566e-15 -500)
(3.32429e-25 -7.54566e-15 -500)
(1.00562e-29 -7.54566e-15 -500)
(-3.1056e-29 -7.54566e-15 -500)
(-1.09173e-24 -7.54566e-15 -500)
(-2.9619e-21 -7.54566e-15 -500)
(-9.42154e-15 -7.54566e-15 -500)
(1.99765e-12 -9.86177e-15 -500)
(-1.9176e-12 4.83387e-24 -500)
(-6.35643e-14 3.106e-23 -500)
(-7.54566e-15 3.10627e-23 -500)
(1.09183e-24 3.10627e-23 -500)
(3.11021e-29 3.10627e-23 -500)
(-3.65413e-29 3.10627e-23 -500)
(-2.55409e-24 3.10626e-23 -500)
(1.50679e-18 9.59972e-23 -500)
(1.44712e-12 2.17327e-13 -500)
(1.82977e-12 6.55576e-13 -500)
(-1.1354e-12 2.00692e-12 -500)
(-2.80423e-12 4.25501e-13 -500)
(-6.56346e-14 1.01697e-14 -500)
(-4.02296e-15 3.10627e-23 -500)
(-4.53971e-29 3.10627e-23 -500)
(-3.10549e-29 3.10627e-23 -500)
(-1.09173e-24 3.10627e-23 -500)
(-2.9619e-21 3.10627e-23 -500)
(-9.42154e-15 3.106e-23 -500)
(1.99765e-12 4.83387e-24 -500)
(-1.9176e-12 2.02117e-29 -500)
(-6.35643e-14 1.77948e-29 -500)
(-7.54566e-15 2.1985e-28 -500)
(1.09183e-24 2.19047e-28 -500)
(3.11079e-29 2.20432e-28 -500)
(-2.59077e-29 2.18881e-28 -500)
(-1.71512e-24 7.71927e-28 -500)
(3.8224e-19 3.81099e-24 -500)
(1.82052e-12 2.52084e-13 -500)
(2.55949e-12 7.62879e-13 -500)
(-1.44732e-12 4.3288e-13 -500)
(-3.45779e-12 1.12731e-14 -500)
(-6.32461e-15 -3.53087e-23 -500)
(1.91939e-24 -6.36928e-28 -500)
(1.30106e-29 2.19709e-28 -500)
(-3.10476e-29 2.1915e-28 -500)
(-1.09173e-24 2.18153e-28 -500)
(-2.9619e-21 2.20084e-28 -500)
(-9.42154e-15 1.72073e-29 -500)
(1.99765e-12 2.01366e-29 -500)
(-1.9176e-12 6.8609e-29 -500)
(-6.35643e-14 1.18599e-28 -500)
(-7.54566e-15 -1.22822e-28 -500)
(1.09183e-24 -9.93291e-28 -500)
(3.11141e-29 -5.06137e-29 -500)
(-1.47035e-31 -8.26795e-29 -500)
(-7.5001e-25 5.42446e-28 -500)
(3.40512e-18 6.13305e-23 -500)
(2.8564e-12 -9.38683e-15 -500)
(2.38818e-12 1.7444e-13 -500)
(-1.89142e-12 -8.15744e-13 -500)
(-3.03178e-12 -1.86905e-13 -500)
(-7.84079e-15 -3.0517e-23 -500)
(2.00315e-24 -1.31927e-27 -500)
(6.55326e-29 -4.19001e-28 -500)
(-3.10647e-29 5.47951e-29 -500)
(-1.09173e-24 -7.75257e-29 -500)
(-2.9619e-21 -8.99056e-28 -500)
(-9.42154e-15 -1.60608e-28 -500)
(1.99765e-12 -6.13854e-29 -500)
(-1.9176e-12 -3.97089e-24 -500)
(-6.35643e-14 4.16648e-23 -500)
(-7.54566e-15 -8.29115e-25 -500)
(1.09185e-24 -2.54146e-23 -500)
(6.64895e-29 3.69798e-23 -500)
(4.18053e-29 -3.38799e-23 -500)
(-1.01107e-26 5.17098e-23 -500)
(5.26857e-16 -1.25211e-22 -500)
(2.09747e-12 -3.34201e-13 -500)
(1.70083e-12 -9.9635e-13 -500)
(-1.59026e-12 -9.23067e-13 -500)
(-2.11364e-12 -1.58991e-13 -500)
(-7.86365e-15 -5.46032e-23 -500)
(3.49115e-24 -2.66927e-23 -500)
(1.25679e-28 1.7427e-24 -500)
(-2.04976e-29 -2.97079e-23 -500)
(-1.09175e-24 -6.68997e-23 -500)
(-2.9619e-21 8.0753e-24 -500)
(-9.42154e-15 -4.05001e-24 -500)
(1.99765e-12 -1.92512e-24 -500)
(-1.9175e-12 -1.73848e-15 -500)
(-6.35751e-14 3.20675e-16 -500)
(-7.54566e-15 1.89315e-15 -500)
(-2.31618e-19 2.34626e-18 -500)
(1.74871e-25 3.18303e-16 -500)
(-6.04885e-20 9.72574e-17 -500)
(-4.65596e-19 6.96945e-16 -500)
(6.10104e-17 1.60708e-15 -500)
(1.39191e-12 -2.04308e-13 -500)
(1.46025e-12 -7.26111e-13 -500)
(-1.19952e-12 1.96717e-14 -500)
(-1.29408e-12 8.20901e-14 -500)
(-2.64141e-14 7.54063e-15 -500)
(7.33123e-19 5.64617e-18 -500)
(1.97286e-22 2.07485e-16 -500)
(-3.14371e-19 2.06672e-14 -500)
(7.52002e-25 6.04361e-18 -500)
(-2.3792e-19 1.10809e-14 -500)
(-9.42147e-15 2.35544e-15 -500)
(1.99115e-12 4.94311e-14 -500)
(-1.74967e-12 5.38339e-13 -500)
(6.44908e-15 3.11078e-13 -500)
(1.50201e-13 9.48277e-13 -500)
(-2.05773e-13 2.02735e-12 -500)
(2.54213e-14 -2.64054e-13 -500)
(1.11669e-13 1.74226e-12 -500)
(2.48101e-14 2.68513e-13 -500)
(2.8721e-13 2.1261e-12 -500)
(3.17729e-13 1.63614e-12 -500)
(1.45087e-12 -9.33514e-14 -500)
(-6.28629e-13 1.75279e-14 -500)
(-2.20616e-12 9.98464e-13 -500)
(-9.16311e-14 1.05616e-12 -500)
(4.20718e-14 4.00099e-13 -500)
(1.31285e-13 1.18834e-12 -500)
(-2.22945e-14 8.00178e-13 -500)
(1.76012e-13 1.13672e-12 -500)
(8.53508e-14 2.29882e-12 -500)
(2.67825e-14 1.61522e-12 -500)
(1.22829e-12 2.00103e-12 -500)
(-1.32863e-12 9.9789e-13 -500)
(6.52127e-14 7.03178e-13 -500)
(1.10511e-12 5.54534e-13 -500)
(-7.64873e-13 1.09601e-12 -500)
(-1.02029e-13 1.05821e-12 -500)
(2.542e-13 1.86283e-12 -500)
(6.19518e-14 1.06287e-12 -500)
(1.11432e-12 7.80169e-13 -500)
(-3.88403e-13 1.16775e-12 -500)
(1.24641e-13 7.55096e-13 -500)
(-2.60286e-14 4.04503e-13 -500)
(-5.78159e-13 5.13485e-13 -500)
(-5.36373e-13 9.40823e-13 -500)
(1.33901e-13 1.09957e-12 -500)
(4.50195e-13 1.8283e-12 -500)
(-8.57533e-14 1.49866e-12 -500)
(6.00548e-13 1.10819e-12 -500)
(3.07318e-13 1.02501e-12 -500)
(-2.28151e-13 1.01842e-12 -500)
(-1.21362e-12 1.9783e-12 -500)
(-8.40506e-13 -5.20182e-13 -500)
(-5.76814e-13 -3.84803e-13 -500)
(2.9634e-13 -9.33819e-13 -500)
(4.95688e-13 -1.42375e-12 -500)
(4.98009e-13 -3.34907e-13 -500)
(-4.20504e-14 -1.34183e-12 -500)
(-7.8869e-13 -5.77402e-13 -500)
(2.17376e-13 -1.59533e-12 -500)
(7.98704e-13 -1.44496e-12 -500)
(9.1348e-13 7.80618e-13 -500)
(-7.13809e-13 7.30624e-13 -500)
(-1.31304e-12 -9.80375e-13 -500)
(8.57796e-14 -9.98505e-13 -500)
(8.89077e-13 -6.33522e-13 -500)
(2.64619e-13 -1.1047e-12 -500)
(-4.51815e-13 -1.09247e-12 -500)
(-3.1574e-13 -9.81095e-13 -500)
(-3.46735e-13 -1.92863e-12 -500)
(9.42121e-13 -1.52346e-12 -500)
(-8.75569e-13 -1.63865e-12 -500)
(-1.56857e-12 -1.05185e-12 -500)
(-2.1221e-13 -7.84909e-13 -500)
(7.77926e-14 -3.48059e-13 -500)
(7.59467e-14 -1.50037e-12 -500)
(8.88869e-14 -7.95429e-13 -500)
(8.89188e-14 -2.18608e-12 -500)
(-3.54368e-13 -1.34794e-12 -500)
(-4.25679e-14 -6.29934e-13 -500)
(1.96847e-12 -1.34128e-12 -500)
(1.98717e-12 3.17458e-13 -500)
(-1.68776e-12 -3.53065e-13 -500)
(-2.26099e-12 -4.59842e-13 -500)
(-4.83097e-14 -1.30857e-12 -500)
(-6.93815e-15 -9.14027e-13 -500)
(1.16782e-13 -2.2222e-12 -500)
(1.946e-14 -1.38549e-12 -500)
(-4.28171e-14 -1.55786e-12 -500)
(-8.52331e-14 -8.71026e-13 -500)
(3.19988e-13 -7.0085e-13 -500)
(1.28698e-12 -2.70994e-12 -500)
(-1.91727e-12 -1.68275e-14 -500)
(-6.35756e-14 -6.95363e-15 -500)
(-7.54566e-15 1.29155e-15 -500)
(2.00841e-24 1.22927e-15 -500)
(-1.1624e-24 -2.15857e-15 -500)
(1.82001e-24 -6.67916e-16 -500)
(-3.39583e-24 3.73867e-16 -500)
(-1.22211e-15 -2.21821e-17 -500)
(2.48426e-12 -9.3556e-14 -500)
(1.75811e-12 -6.47408e-13 -500)
(-1.91123e-12 3.33576e-13 -500)
(-2.04756e-12 4.00814e-14 -500)
(-5.4429e-15 -3.2699e-14 -500)
(-2.52279e-24 -3.86901e-15 -500)
(-2.89616e-24 -7.43601e-15 -500)
(1.82062e-24 -1.2443e-14 -500)
(2.47483e-24 -6.6057e-14 -500)
(-2.96036e-21 -1.24805e-14 -500)
(-9.42154e-15 -6.75428e-15 -500)
(1.99758e-12 1.3078e-15 -500)
(-1.9176e-12 -1.38835e-23 -500)
(-6.35643e-14 -1.06616e-22 -500)
(-7.54566e-15 9.39287e-23 -500)
(1.09182e-24 -4.47442e-23 -500)
(3.00882e-29 5.74096e-23 -500)
(-1.18436e-29 -4.35526e-23 -500)
(-1.6759e-24 2.8313e-23 -500)
(5.68678e-19 7.36636e-23 -500)
(1.32816e-12 -2.74674e-13 -500)
(2.46475e-12 -7.52502e-13 -500)
(-1.00052e-12 3.00041e-13 -500)
(-3.09405e-12 1.11759e-13 -500)
(-1.91113e-14 -1.26293e-22 -500)
(6.76102e-25 1.67533e-23 -500)
(2.88739e-29 -3.64005e-23 -500)
(5.59674e-29 5.92564e-23 -500)
(-1.09173e-24 -3.22924e-16 -500)
(-2.9619e-21 -3.06207e-23 -500)
(-9.42154e-15 -1.34565e-22 -500)
(1.99765e-12 4.22923e-23 -500)
(-1.9176e-12 1.04904e-28 -500)
(-6.35643e-14 -5.1086e-28 -500)
(-7.54566e-15 5.72958e-28 -500)
(1.09183e-24 -3.13693e-29 -500)
(3.11031e-29 1.20624e-27 -500)
(-2.27783e-31 -1.83327e-29 -500)
(-1.82681e-24 1.03364e-27 -500)
(-4.45558e-15 3.36784e-23 -500)
(9.5601e-13 -3.60134e-14 -500)
(1.94729e-12 -4.79694e-13 -500)
(-8.61066e-13 -1.08874e-12 -500)
(-2.65875e-12 -1.22907e-13 -500)
(-6.53623e-14 2.32942e-23 -500)
(-4.02296e-15 1.10533e-27 -500)
(-7.10045e-29 3.63733e-28 -500)
(-3.1048e-29 4.99446e-28 -500)
(-1.09173e-24 -4.73936e-28 -500)
(-2.9619e-21 8.19498e-28 -500)
(-9.42154e-15 -4.69895e-28 -500)
(1.99765e-12 3.74404e-28 -500)
(-1.9176e-12 -2.00884e-29 -500)
(-6.35643e-14 -1.66993e-29 -500)
(-7.54566e-15 -2.15289e-28 -500)
(1.09183e-24 -2.17958e-28 -500)
(3.11117e-29 -2.15804e-28 -500)
(2.56939e-30 -2.17695e-28 -500)
(-4.52575e-25 1.23763e-28 -500)
(5.79879e-22 1.38544e-22 -500)
(8.78223e-13 2.23489e-13 -500)
(1.407e-12 5.94598e-13 -500)
(-5.87268e-13 -8.786e-13 -500)
(-1.65015e-12 -1.79149e-13 -500)
(-1.65875e-14 -2.12229e-23 -500)
(-6.35598e-25 -5.59002e-28 -500)
(-4.11906e-29 -2.17806e-28 -500)
(-3.10574e-29 -2.16005e-28 -500)
(-1.09173e-24 -2.18421e-28 -500)
(-2.9619e-21 -2.17746e-28 -500)
(-9.42154e-15 -1.71638e-29 -500)
(1.99765e-12 -1.90167e-29 -500)
(-1.9176e-12 -4.83388e-24 -500)
(-6.35643e-14 -3.106e-23 -500)
(-7.54566e-15 -3.10626e-23 -500)
(1.09183e-24 -3.10626e-23 -500)
(3.11179e-29 -3.10626e-23 -500)
(1.64611e-29 -3.10626e-23 -500)
(1.82544e-24 -3.10627e-23 -500)
(1.06236e-16 -5.93944e-23 -500)
(2.41901e-12 -1.12811e-13 -500)
(1.3149e-12 5.32715e-14 -500)
(-1.90024e-12 3.03428e-13 -500)
(-1.16373e-12 1.83025e-14 -500)
(-1.21693e-14 -3.59772e-23 -500)
(2.20853e-24 -3.10629e-23 -500)
(1.03978e-29 -3.10626e-23 -500)
(-3.1047e-29 -3.10626e-23 -500)
(-1.09173e-24 -3.10626e-23 -500)
(-2.9619e-21 -3.10626e-23 -500)
(-9.42154e-15 -3.106e-23 -500)
(1.99765e-12 -4.83389e-24 -500)
(-1.9176e-12 -9.97627e-23 -500)
(-6.35643e-14 -3.83673e-22 -500)
(-7.54566e-15 -3.32625e-21 -500)
(1.09183e-24 -3.32626e-21 -500)
(3.11083e-29 -3.32626e-21 -500)
(-1.27547e-29 -3.32626e-21 -500)
(-9.70342e-25 -3.32626e-21 -500)
(-8.18452e-16 -3.44029e-21 -500)
(5.11225e-13 -8.21095e-14 -500)
(1.77965e-12 -6.69506e-13 -500)
(-8.21447e-13 -1.1364e-13 -500)
(-1.93982e-12 -1.08956e-14 -500)
(-3.94273e-15 -3.2299e-21 -500)
(-9.64815e-26 -3.32626e-21 -500)
(1.26766e-29 -3.32626e-21 -500)
(-3.1053e-29 -3.32626e-21 -500)
(-1.09173e-24 -3.32626e-21 -500)
(-2.96176e-21 -3.32625e-21 -500)
(-9.42154e-15 -3.83674e-22 -500)
(1.99765e-12 -9.97627e-23 -500)
(-1.9176e-12 -6.73921e-17 -500)
(-6.36236e-14 -9.42154e-15 -500)
(-7.54566e-15 -9.42154e-15 -500)
(1.09626e-24 -9.42154e-15 -500)
(1.72585e-31 -9.42154e-15 -500)
(-2.03436e-31 -9.42154e-15 -500)
(-1.6731e-24 -9.42154e-15 -500)
(2.56036e-15 -9.42154e-15 -500)
(1.55665e-12 3.16982e-14 -500)
(1.27416e-12 3.21587e-13 -500)
(-1.13182e-12 1.64538e-13 -500)
(-1.14318e-12 5.79957e-14 -500)
(-8.61842e-15 -9.42154e-15 -500)
(-1.50862e-24 -9.42154e-15 -500)
(-2.70184e-29 -9.42154e-15 -500)
(-1.23034e-31 -9.42154e-15 -500)
(-1.09626e-24 -9.42154e-15 -500)
(-1.98533e-23 -9.42154e-15 -500)
(-9.34955e-15 -9.42154e-15 -500)
(1.99765e-12 -6.73921e-17 -500)
(-1.92444e-12 2.00508e-12 -500)
(-7.08446e-14 1.99765e-12 -500)
(-9.86177e-15 1.99765e-12 -500)
(8.99375e-25 1.99765e-12 -500)
(9.66085e-30 1.99765e-12 -500)
(-6.03029e-29 1.99765e-12 -500)
(-2.53954e-24 1.99765e-12 -500)
(-6.27604e-16 1.99602e-12 -500)
(1.04641e-12 1.45845e-12 -500)
(1.9422e-12 -3.39999e-13 -500)
(-1.06861e-12 -1.08746e-12 -500)
(-2.44238e-12 1.31016e-12 -500)
(-3.0627e-15 1.99765e-12 -500)
(2.57224e-24 1.99765e-12 -500)
(3.59246e-29 1.99765e-12 -500)
(-9.61533e-30 1.99765e-12 -500)
(-8.99385e-25 1.99765e-12 -500)
(-1.5716e-22 1.99765e-12 -500)
(-6.73905e-17 1.99765e-12 -500)
(2.00508e-12 2.00508e-12 -500)
(-8.44418e-13 -8.44393e-13 -500)
(2.97157e-14 -8.48592e-13 -500)
(-5.54098e-22 -8.48592e-13 -500)
(2.18678e-25 -8.48592e-13 -500)
(8.96999e-30 -8.48592e-13 -500)
(-1.64047e-29 -8.48592e-13 -500)
(-4.50305e-24 -8.48592e-13 -500)
(1.04917e-14 -8.48988e-13 -500)
(-2.25769e-13 -8.23958e-13 -500)
(3.48327e-13 -5.23834e-13 -500)
(-7.66551e-14 -8.80791e-13 -500)
(-2.45003e-13 -8.37486e-13 -500)
(-2.14832e-14 -8.48567e-13 -500)
(-1.1008e-24 -8.48592e-13 -500)
(1.36418e-29 -8.48592e-13 -500)
(-8.99044e-30 -8.48592e-13 -500)
(-2.18728e-25 -8.48592e-13 -500)
(5.54098e-22 -8.48592e-13 -500)
(3.99076e-17 -8.48592e-13 -500)
(8.18597e-13 -8.44393e-13 -500)
(-8.48592e-13 2.97881e-14 -500)
(2.79179e-14 2.79179e-14 -500)
(1.65185e-23 2.79179e-14 -500)
(1.39235e-24 2.79179e-14 -500)
(2.11084e-31 2.79179e-14 -500)
(-1.6709e-29 2.79179e-14 -500)
(-2.36699e-24 2.79179e-14 -500)
(2.23456e-14 2.79124e-14 -500)
(-3.5565e-14 1.54309e-13 -500)
(4.95851e-13 8.6123e-13 -500)
(-3.09103e-13 3.7261e-13 -500)
(-3.31625e-13 -2.9303e-15 -500)
(-1.40536e-15 2.79075e-14 -500)
(1.87697e-24 2.79179e-14 -500)
(3.40417e-31 2.79179e-14 -500)
(-1.43649e-31 2.79179e-14 -500)
(-1.39235e-24 2.79179e-14 -500)
(-1.65186e-23 2.79179e-14 -500)
(-9.17982e-17 2.79179e-14 -500)
(8.22576e-13 2.97881e-14 -500)
(-8.48592e-13 -6.98898e-22 -500)
(2.79179e-14 -2.86846e-23 -500)
(3.70298e-21 3.65777e-21 -500)
(1.39298e-24 3.65777e-21 -500)
(3.90058e-29 3.65777e-21 -500)
(-9.07556e-30 3.65777e-21 -500)
(-9.65318e-25 3.65777e-21 -500)
(3.40847e-15 3.6125e-21 -500)
(1.39668e-12 1.42115e-13 -500)
(5.90039e-13 6.75553e-13 -500)
(-1.01921e-12 6.44065e-13 -500)
(-8.22732e-13 1.03418e-13 -500)
(-4.95738e-15 3.74105e-21 -500)
(4.38837e-25 3.65777e-21 -500)
(9.04473e-30 3.65777e-21 -500)
(-3.89366e-29 3.65777e-21 -500)
(-1.39285e-24 3.65777e-21 -500)
(-3.70298e-21 3.65777e-21 -500)
(-9.18025e-17 -2.86844e-23 -500)
(8.22576e-13 -6.98898e-22 -500)
(-8.48592e-13 -2.10855e-24 -500)
(2.79179e-14 6.74684e-24 -500)
(3.70298e-21 6.75031e-24 -500)
(1.39298e-24 6.75031e-24 -500)
(3.89872e-29 6.75031e-24 -500)
(-9.66285e-29 6.75031e-24 -500)
(-5.39801e-24 6.75003e-24 -500)
(9.94931e-18 2.77802e-23 -500)
(1.02495e-12 -2.2165e-14 -500)
(1.03028e-12 -2.56541e-13 -500)
(-8.84533e-13 2.50174e-13 -500)
(-9.92167e-13 1.69344e-14 -500)
(7.17451e-15 -3.41714e-23 -500)
(9.88141e-25 6.7501e-24 -500)
(3.24837e-29 6.75031e-24 -500)
(-3.89311e-29 6.75031e-24 -500)
(-1.39285e-24 6.75031e-24 -500)
(-3.70298e-21 6.75031e-24 -500)
(-9.18025e-17 6.74684e-24 -500)
(8.22576e-13 -2.10855e-24 -500)
(-8.48592e-13 -2.85783e-29 -500)
(2.79179e-14 4.16255e-30 -500)
(3.70298e-21 2.58736e-28 -500)
(1.39298e-24 2.56585e-28 -500)
(3.90019e-29 2.5976e-28 -500)
(-3.24563e-29 2.58181e-28 -500)
(-1.73781e-24 1.23923e-27 -500)
(4.40712e-18 8.73506e-23 -500)
(5.52405e-13 -3.65842e-14 -500)
(1.13275e-12 -5.34247e-14 -500)
(-6.89101e-13 -3.5902e-13 -500)
(-1.04817e-12 7.4081e-14 -500)
(-6.18802e-15 6.9971e-24 -500)
(1.37246e-24 -2.52496e-28 -500)
(1.61173e-29 2.58815e-28 -500)
(-3.89315e-29 2.59933e-28 -500)
(-1.39285e-24 2.58821e-28 -500)
(-3.70298e-21 2.58554e-28 -500)
(-9.18025e-17 3.46684e-30 -500)
(8.22576e-13 -2.67694e-29 -500)
(-8.48592e-13 -1.14422e-28 -500)
(2.79179e-14 9.25765e-30 -500)
(3.70298e-21 -1.2879e-28 -500)
(1.39298e-24 -1.25787e-27 -500)
(3.90169e-29 1.7469e-28 -500)
(-1.80413e-31 -6.81614e-29 -500)
(-7.4384e-25 6.23869e-29 -500)
(3.57674e-17 1.6998e-23 -500)
(8.81667e-13 -4.75805e-14 -500)
(7.44786e-13 1.20743e-13 -500)
(-9.95149e-13 -5.00055e-13 -500)
(-3.75087e-13 -1.68071e-13 -500)
(-1.63503e-17 -4.6431e-23 -500)
(2.7219e-25 -1.64716e-27 -500)
(7.82371e-29 -4.02646e-28 -500)
(-3.8937e-29 2.49727e-28 -500)
(-1.39285e-24 8.37225e-29 -500)
(-3.70298e-21 -1.15294e-27 -500)
(-9.18025e-17 -3.26408e-28 -500)
(8.22576e-13 -6.88791e-29 -500)
(-8.48592e-13 -7.83007e-23 -500)
(2.79179e-14 2.15949e-23 -500)
(3.70298e-21 4.31264e-23 -500)
(1.39301e-24 -4.65845e-23 -500)
(8.36247e-29 9.68616e-23 -500)
(-7.05175e-30 1.8669e-23 -500)
(-2.05799e-24 3.57448e-23 -500)
(1.71426e-15 -8.26882e-23 -500)
(5.36328e-13 4.09543e-14 -500)
(4.74509e-13 7.49667e-14 -500)
(-9.02497e-13 4.9557e-13 -500)
(-3.42472e-14 1.23587e-13 -500)
(-5.07493e-15 -9.04837e-23 -500)
(4.48613e-24 2.57645e-24 -500)
(1.61536e-28 5.91561e-23 -500)
(-2.51079e-29 1.17188e-22 -500)
(-1.3929e-24 5.87545e-23 -500)
(-3.70298e-21 3.54307e-23 -500)
(-9.18025e-17 -1.04721e-23 -500)
(8.22576e-13 7.71384e-24 -500)
(-8.48146e-13 -3.02706e-15 -500)
(2.79128e-14 1.81182e-15 -500)
(3.69955e-21 8.2959e-15 -500)
(-3.11516e-19 1.07751e-17 -500)
(3.09659e-24 2.60831e-14 -500)
(-8.15483e-20 4.45275e-16 -500)
(-6.23819e-19 -2.86244e-15 -500)
(4.79868e-16 4.90292e-15 -500)
(1.01924e-12 1.19433e-13 -500)
(1.29265e-12 2.05428e-13 -500)
(-9.64412e-13 3.52213e-13 -500)
(-1.83876e-12 1.30826e-13 -500)
(-4.51903e-15 1.36747e-14 -500)
(9.80066e-19 5.38153e-17 -500)
(2.52165e-22 1.24688e-15 -500)
(-4.1986e-19 1.05638e-16 -500)
(-3.40355e-24 -1.49372e-16 -500)
(-3.20313e-19 2.06583e-14 -500)
(-9.17084e-17 9.77326e-15 -500)
(8.23888e-13 -1.76897e-14 -500)
(-6.10355e-13 6.45922e-13 -500)
(2.09666e-13 5.3066e-13 -500)
(-1.93195e-14 1.9793e-12 -500)
(-2.27143e-13 8.37868e-13 -500)
(8.68845e-14 2.66302e-13 -500)
(-1.92846e-14 2.05188e-12 -500)
(-2.86038e-13 -2.94492e-14 -500)
(2.17849e-13 -9.98456e-13 -500)
(1.34181e-12 1.04354e-12 -500)
(7.10589e-13 -4.39167e-13 -500)
(-9.07843e-13 -7.21887e-13 -500)
(-4.89855e-13 4.5217e-13 -500)
(-3.52278e-14 6.73075e-13 -500)
(6.8583e-14 5.86972e-13 -500)
(1.06078e-13 1.32336e-12 -500)
(-8.44511e-14 1.32871e-12 -500)
(-1.89843e-13 6.98321e-13 -500)
(-1.19854e-13 3.73539e-13 -500)
(3.28314e-14 -1.47788e-13 -500)
(7.0002e-13 3.7429e-13 -500)
(5.46259e-13 1.01545e-12 -500)
(6.54057e-13 9.7179e-13 -500)
(3.89986e-13 5.25916e-13 -500)
(-9.92141e-13 7.5303e-13 -500)
(3.11682e-13 1.00215e-12 -500)
(-1.19104e-13 1.18784e-12 -500)
(-1.49173e-12 7.38381e-13 -500)
(7.02264e-13 6.35458e-13 -500)
(8.17381e-13 1.43475e-13 -500)
(-2.46904e-13 9.34475e-14 -500)
(3.00369e-13 8.70689e-13 -500)
(-3.52822e-14 5.8977e-13 -500)
(-9.8399e-14 7.13974e-13 -500)
(2.95016e-13 3.50568e-13 -500)
(3.05835e-13 5.23987e-13 -500)
(-1.81214e-13 6.19612e-13 -500)
(-2.99195e-13 6.50608e-13 -500)
(-4.71972e-13 6.48825e-13 -500)
(1.38229e-13 8.95147e-13 -500)
(-3.84152e-13 7.70278e-13 -500)
(8.20827e-13 -8.11833e-13 -500)
(-5.99498e-13 -6.17132e-13 -500)
(-1.28837e-13 -1.54418e-12 -500)
(4.66829e-13 -1.12303e-12 -500)
(3.10927e-13 -5.75495e-13 -500)
(-3.12879e-13 -1.38915e-12 -500)
(-3.02148e-13 -3.842e-13 -500)
(-2.70609e-13 1.80832e-13 -500)
(4.23092e-13 -8.13755e-13 -500)
(1.49657e-12 8.26606e-13 -500)
(-5.66747e-13 4.87619e-13 -500)
(-1.14228e-12 -6.8105e-13 -500)
(-2.7784e-13 -6.91267e-13 -500)
(-9.35781e-14 -6.56485e-13 -500)
(2.10913e-13 -9.15848e-13 -500)
(1.23521e-13 -9.7825e-13 -500)
(-4.23409e-14 -8.18271e-13 -500)
(2.51464e-13 -6.62879e-13 -500)
(1.0118e-13 -3.62345e-13 -500)
(-6.93227e-13 -5.89215e-13 -500)
(-4.30743e-13 -1.32961e-12 -500)
(-6.55728e-14 -1.14105e-12 -500)
(-5.74463e-14 -3.86388e-13 -500)
(6.16395e-14 -7.23577e-13 -500)
(8.02504e-14 -1.2536e-12 -500)
(-1.45441e-13 -1.06531e-12 -500)
(-8.9367e-14 -1.23423e-15 -500)
(-4.48157e-14 -8.59711e-13 -500)
(1.24494e-12 1.00098e-13 -500)
(1.1519e-12 -6.01773e-13 -500)
(-1.21238e-12 -1.27151e-12 -500)
(-1.38094e-12 -7.45813e-13 -500)
(-1.24545e-13 -7.70936e-13 -500)
(-4.42851e-14 -6.82871e-14 -500)
(1.01358e-13 -2.08193e-13 -500)
(5.44208e-14 -6.88354e-13 -500)
(-2.73166e-14 -5.45175e-13 -500)
(3.23621e-14 -6.33708e-13 -500)
(3.92479e-15 -9.33719e-13 -500)
(5.90226e-13 -4.22423e-13 -500)
(-8.48126e-13 -1.15226e-14 -500)
(2.79088e-14 -1.08237e-14 -500)
(3.70106e-21 -2.11055e-14 -500)
(2.19012e-24 -7.74691e-15 -500)
(5.32951e-25 -6.30204e-15 -500)
(-1.08123e-24 -6.21637e-15 -500)
(2.10187e-24 -3.5288e-15 -500)
(-1.2404e-15 -5.5993e-15 -500)
(-1.46334e-13 -1.70734e-14 -500)
(3.47127e-13 -3.48059e-13 -500)
(-4.18853e-13 -5.19667e-13 -500)
(5.75453e-14 -1.39118e-13 -500)
(-1.28778e-14 3.84012e-15 -500)
(-2.35885e-24 -6.93571e-16 -500)
(2.4357e-25 1.53079e-15 -500)
(1.4867e-24 -5.62489e-15 -500)
(-2.78978e-24 1.13082e-15 -500)
(-3.70003e-21 -3.29873e-15 -500)
(-9.18025e-17 -1.15763e-14 -500)
(8.22554e-13 -1.64146e-15 -500)
(-8.48592e-13 -2.82713e-23 -500)
(2.79179e-14 -7.67455e-23 -500)
(3.70298e-21 8.40514e-24 -500)
(1.39297e-24 -2.02166e-24 -500)
(5.48298e-29 6.85711e-24 -500)
(-5.51909e-29 -5.78892e-23 -500)
(-2.83925e-24 3.38343e-23 -500)
(6.33195e-18 -1.13702e-22 -500)
(1.08433e-12 1.0645e-13 -500)
(6.55105e-13 1.8701e-13 -500)
(-9.63305e-13 4.76444e-13 -500)
(-6.01866e-13 1.11421e-14 -500)
(-1.46039e-14 -1.02866e-22 -500)
(-1.80931e-24 3.65092e-24 -500)
(6.56203e-29 1.74093e-23 -500)
(2.62918e-30 1.99775e-23 -500)
(-1.3929e-24 -3.13992e-23 -500)
(-3.70298e-21 4.01092e-23 -500)
(-9.18025e-17 -1.10856e-22 -500)
(8.22576e-13 1.33819e-22 -500)
(-8.48592e-13 -8.78098e-30 -500)
(2.79179e-14 -2.35092e-28 -500)
(3.70298e-21 6.50901e-28 -500)
(1.39298e-24 3.50458e-28 -500)
(3.90066e-29 1.26101e-27 -500)
(-1.21983e-31 -2.96057e-29 -500)
(-6.68899e-25 1.84464e-27 -500)
(-1.18176e-14 1.16229e-22 -500)
(2.91243e-13 5.02142e-14 -500)
(9.1541e-13 -2.50877e-14 -500)
(-5.65302e-13 2.73963e-13 -500)
(-6.24632e-13 8.93451e-14 -500)
(8.10347e-15 -8.5478e-23 -500)
(2.60494e-24 1.21317e-27 -500)
(5.22325e-31 7.21078e-28 -500)
(-3.89232e-29 5.91853e-28 -500)
(-1.39285e-24 5.26824e-29 -500)
(-3.70298e-21 1.55317e-27 -500)
(-9.18025e-17 -1.85565e-28 -500)
(8.22576e-13 5.32721e-28 -500)
(-8.48592e-13 2.64953e-29 -500)
(2.79179e-14 -4.70388e-30 -500)
(3.70298e-21 -2.5694e-28 -500)
(1.39298e-24 -2.57146e-28 -500)
(3.90187e-29 -2.57036e-28 -500)
(7.17371e-30 -2.5824e-28 -500)
(3.19477e-24 -9.66198e-29 -500)
(1.74088e-21 1.11934e-22 -500)
(1.24912e-12 1.56661e-14 -500)
(9.90119e-13 1.36752e-13 -500)
(-9.68911e-13 -2.19389e-13 -500)
(-1.28311e-12 2.47034e-14 -500)
(-1.47475e-15 4.35822e-23 -500)
(4.47774e-25 -1.11371e-28 -500)
(1.59163e-29 -2.56441e-28 -500)
(-3.89366e-29 -2.56751e-28 -500)
(-1.39285e-24 -2.57898e-28 -500)
(-3.70298e-21 -2.56203e-28 -500)
(-9.18025e-17 -5.36382e-30 -500)
(8.22576e-13 2.95477e-29 -500)
(-8.48592e-13 2.10849e-24 -500)
(2.79179e-14 -6.74684e-24 -500)
(3.70298e-21 -6.75018e-24 -500)
(1.39298e-24 -6.75018e-24 -500)
(3.90122e-29 -6.75018e-24 -500)
(-1.57483e-29 -6.75018e-24 -500)
(5.74089e-25 -6.75025e-24 -500)
(8.70553e-16 -7.22556e-23 -500)
(5.39902e-13 -1.41012e-13 -500)
(7.5786e-13 -4.20074e-13 -500)
(-7.69036e-13 1.13761e-13 -500)
(-6.01327e-13 8.5443e-14 -500)
(-1.54867e-14 2.10885e-23 -500)
(-6.4717e-25 -6.75017e-24 -500)
(8.86146e-30 -6.75018e-24 -500)
(-3.89402e-29 -6.75018e-24 -500)
(-1.39285e-24 -6.75018e-24 -500)
(-3.70298e-21 -6.75018e-24 -500)
(-9.18025e-17 -6.74684e-24 -500)
(8.22576e-13 2.10849e-24 -500)
(-8.48592e-13 6.98898e-22 -500)
(2.79179e-14 2.86843e-23 -500)
(3.7028e-21 -3.65777e-21 -500)
(1.39298e-24 -3.65777e-21 -500)
(3.90094e-29 -3.65777e-21 -500)
(-1.57897e-29 -3.65777e-21 -500)
(3.13326e-25 -3.65777e-21 -500)
(-4.66279e-15 -3.67555e-21 -500)
(4.2056e-13 -2.18815e-14 -500)
(1.16647e-12 9.00213e-14 -500)
(-6.16301e-13 -5.49643e-14 -500)
(-1.65255e-12 3.83676e-16 -500)
(-5.75912e-15 -3.61458e-21 -500)
(7.30977e-25 -3.65777e-21 -500)
(1.60254e-29 -3.65777e-21 -500)
(-3.89309e-29 -3.65777e-21 -500)
(-1.39285e-24 -3.65777e-21 -500)
(-3.7028e-21 -3.65777e-21 -500)
(-9.18025e-17 2.86842e-23 -500)
(8.22576e-13 6.98898e-22 -500)
(-8.48592e-13 3.99055e-17 -500)
(2.79534e-14 -9.17968e-17 -500)
(1.69403e-23 -9.18011e-17 -500)
(1.39235e-24 -9.18011e-17 -500)
(2.28467e-31 -9.18011e-17 -500)
(6.93252e-32 -9.18011e-17 -500)
(1.11199e-24 -9.18011e-17 -500)
(1.05834e-14 -9.18012e-17 -500)
(8.5272e-13 -5.71637e-14 -500)
(5.76358e-13 -1.45954e-13 -500)
(-8.12795e-13 -6.48156e-13 -500)
(-5.79511e-13 -2.5716e-13 -500)
(-6.12304e-15 -9.18013e-17 -500)
(-1.48732e-24 -9.18011e-17 -500)
(8.74318e-30 -9.18011e-17 -500)
(-1.57579e-31 -9.18011e-17 -500)
(-1.39235e-24 -9.18011e-17 -500)
(-1.69404e-23 -9.18011e-17 -500)
(-9.17851e-17 -9.17968e-17 -500)
(8.22576e-13 3.99055e-17 -500)
(-8.44393e-13 8.18597e-13 -500)
(2.97881e-14 8.22576e-13 -500)
(-5.53883e-22 8.22576e-13 -500)
(2.18749e-25 8.22576e-13 -500)
(8.97228e-30 8.22576e-13 -500)
(-7.85861e-29 8.22576e-13 -500)
(-4.34663e-24 8.22576e-13 -500)
(-2.99926e-14 8.23071e-13 -500)
(-2.84608e-13 8.7835e-13 -500)
(1.80048e-13 6.51039e-13 -500)
(-5.46323e-14 1.02621e-12 -500)
(3.89674e-13 8.71436e-13 -500)
(-5.28203e-15 8.22576e-13 -500)
(2.66265e-24 8.22576e-13 -500)
(4.6563e-29 8.22576e-13 -500)
(-8.97393e-30 8.22576e-13 -500)
(-2.18799e-25 8.22576e-13 -500)
(5.53883e-22 8.22576e-13 -500)
(3.99042e-17 8.22576e-13 -500)
(8.18597e-13 8.18597e-13 -500)
(-1.09807e-12 -1.09807e-12 -500)
(1.00154e-15 -1.09645e-12 -500)
(-1.93235e-21 -1.09645e-12 -500)
(-7.46635e-26 -1.09645e-12 -500)
(-8.93475e-30 -1.09645e-12 -500)
(-8.33206e-31 -1.09645e-12 -500)
(-6.4535e-24 -1.09645e-12 -500)
(4.80376e-15 -1.09643e-12 -500)
(2.0599e-13 -9.72595e-13 -500)
(7.95368e-13 -4.23252e-13 -500)
(-2.62398e-13 9.68638e-14 -500)
(-8.71539e-13 -7.67958e-13 -500)
(-1.02434e-14 -1.09626e-12 -500)
(1.51009e-24 -1.09645e-12 -500)
(2.83526e-31 -1.09645e-12 -500)
(8.90351e-30 -1.09645e-12 -500)
(7.45711e-26 -1.09645e-12 -500)
(1.93235e-21 -1.09645e-12 -500)
(1.02748e-16 -1.09645e-12 -500)
(1.10081e-12 -1.09807e-12 -500)
(-1.09645e-12 1.00154e-15 -500)
(9.87898e-16 9.87896e-16 -500)
(2.19834e-23 9.87898e-16 -500)
(1.5389e-24 9.87898e-16 -500)
(2.28084e-31 9.87898e-16 -500)
(-2.8767e-31 9.87898e-16 -500)
(-2.19819e-24 9.87898e-16 -500)
(9.2047e-15 8.88774e-16 -500)
(7.76116e-13 -1.91367e-15 -500)
(5.68146e-13 8.15961e-14 -500)
(-7.21314e-13 -1.27724e-13 -500)
(-3.6457e-13 -1.55037e-13 -500)
(-3.88911e-15 9.52708e-16 -500)
(3.68541e-24 9.87898e-16 -500)
(6.37517e-31 9.87898e-16 -500)
(-1.44653e-31 9.87898e-16 -500)
(-1.5389e-24 9.87898e-16 -500)
(-2.19834e-23 9.87898e-16 -500)
(-1.60015e-16 9.87896e-16 -500)
(1.09968e-12 1.00154e-15 -500)
(-1.09645e-12 -2.11375e-21 -500)
(9.879e-16 2.85487e-23 -500)
(2.19842e-23 2.8554e-23 -500)
(1.53891e-24 2.85542e-23 -500)
(2.28254e-31 2.85542e-23 -500)
(8.70771e-30 2.85542e-23 -500)
(-1.61326e-24 2.85542e-23 -500)
(6.67837e-15 1.33192e-23 -500)
(-1.22578e-14 1.73656e-13 -500)
(6.45673e-13 8.47346e-13 -500)
(-4.77646e-13 8.29396e-14 -500)
(-4.50662e-13 -4.50024e-14 -500)
(-1.93269e-15 7.57181e-23 -500)
(1.88073e-24 2.85542e-23 -500)
(-8.56671e-30 2.85542e-23 -500)
(-1.47665e-31 2.85542e-23 -500)
(-1.53891e-24 2.85542e-23 -500)
(-2.19841e-23 2.8554e-23 -500)
(-1.60017e-16 2.85489e-23 -500)
(1.09968e-12 -2.11375e-21 -500)
(-1.09645e-12 -6.07069e-24 -500)
(9.879e-16 1.0875e-23 -500)
(2.19842e-23 1.08752e-23 -500)
(1.53891e-24 1.08752e-23 -500)
(2.18752e-31 1.08752e-23 -500)
(-5.41616e-31 1.08752e-23 -500)
(-3.66736e-24 1.08749e-23 -500)
(4.75761e-17 -4.3729e-24 -500)
(1.87482e-12 1.47594e-13 -500)
(5.83482e-13 1.01349e-12 -500)
(-1.48295e-12 4.45883e-13 -500)
(-2.93046e-13 1.41168e-13 -500)
(-2.841e-16 -6.88653e-23 -500)
(1.91219e-24 1.08749e-23 -500)
(4.35912e-31 1.08752e-23 -500)
(-1.45839e-31 1.08752e-23 -500)
(-1.53891e-24 1.08752e-23 -500)
(-2.19841e-23 1.08752e-23 -500)
(-1.60017e-16 1.0875e-23 -500)
(1.09968e-12 -6.07069e-24 -500)
(-1.09645e-12 -1.30553e-28 -500)
(9.879e-16 7.7321e-30 -500)
(2.19842e-23 8.45253e-30 -500)
(1.53891e-24 5.71806e-30 -500)
(2.25153e-31 9.29163e-30 -500)
(-3.61549e-31 7.15865e-30 -500)
(-2.5714e-24 6.09945e-30 -500)
(4.26456e-17 5.85389e-24 -500)
(1.98808e-12 -8.45259e-14 -500)
(1.02977e-12 -4.41737e-13 -500)
(-1.41756e-12 8.18647e-13 -500)
(-1.1461e-12 3.68781e-13 -500)
(-4.72713e-15 7.0964e-23 -500)
(3.66825e-24 2.83974e-28 -500)
(6.75965e-31 9.2855e-30 -500)
(-1.42322e-31 7.86174e-30 -500)
(-1.53891e-24 8.79037e-30 -500)
(-2.19841e-23 9.43353e-30 -500)
(-1.60017e-16 6.6078e-30 -500)
(1.09968e-12 -1.2788e-28 -500)
(-1.09645e-12 -7.00176e-29 -500)
(9.879e-16 2.65284e-28 -500)
(2.19842e-23 3.29891e-29 -500)
(1.53891e-24 -4.08988e-29 -500)
(2.37938e-31 3.0894e-28 -500)
(-5.83659e-31 -2.18996e-30 -500)
(-4.16903e-24 5.92252e-30 -500)
(3.06847e-16 8.72428e-24 -500)
(1.18011e-12 -1.03025e-13 -500)
(1.40923e-12 -3.63698e-13 -500)
(-1.09999e-12 -3.69307e-13 -500)
(-2.24644e-12 -5.60963e-14 -500)
(1.20756e-16 4.4191e-23 -500)
(-9.48799e-25 3.77367e-29 -500)