/*--------------------------------*- C++ -*----------------------------------*\
| =========                 |                                                 |
| \\      /  F ield         | OpenFOAM: The Open Source CFD Toolbox           |
|  \\    /   O peration     | Version:  2412                                  |
|   \\  /    A nd           | Website:  www.openfoam.com                      |
|    \\/     M anipulation  |                                                 |
\*---------------------------------------------------------------------------*/
FoamFile
{
    version     2.0;
    format      ascii;
    arch        "LSB;label=32;scalar=64";
    class       volScalarField;
    location    "1500";
    object      initialResidual:Uz;
}
// * * * * * * * * * * * * * * * * * * * * * * * * * * * * * * * * * * * * * //

dimensions      [0 0 0 0 0 0 0];

internalField   nonuniform List<scalar> 
124215
(
-118.425
-116.539
-121.293
-118.621
-119.11
-120.223
-116.858
-114.142
-111.404
-107.642
-101.546
-107.366
-113.156
-116.766
-118.579
-122.792
-116.215
-119.245
-118.631
-116.713
-118.175
-118.744
-117.806
-116.045
-120.823
-118.714
-121.327
-112.574
-120.135
-103.713
-106.009
-108.633
-116.039
-117.475
-117.187
-118.572
-119.645
-116.187
-117.862
-116.943
-119.414
-117.926
-118.836
-120.433
-120.442
-128
-124.861
-120.258
-116.621
-95.4114
-85.7329
-107.75
-114.532
-123.494
-124.332
-121.727
-113.926
-121.15
-119.977
-120.203
-118.971
-119.541
-119.266
-119.21
-126.315
-122.245
-115.298
-120.956
-102.073
-123.362
-120.414
-117.677
-116.412
-123.163
-120.389
-122.282
-117.866
-119.765
-115.072
-119.982
-121.604
-121.661
-120.669
-124.963
-126.665
-126.748
-138.066
-140.798
-155.515
-143.849
-108.882
-120.028
-117.062
-126.761
-130.564
-125.849
-124.556
-122.692
-116.884
-115.606
-116.882
-115.885
-123.878
-121.448
-120.743
-127.219
-140.834
-149.252
-182.711
-229.418
-202.674
-166.332
-130.377
-124.77
-124.703
-135.403
-118.31
-121.96
-118.238
-119.237
-118.593
-116.777
-124.736
-126.647
-139.254
-142.85
-191.704
-229.184
-358.134
-383.18
-216.337
-177.503
-151.622
-141.286
-106.817
-130.774
-120.167
-118.804
-115.68
-118.057
-111.627
-113.584
-131.74
-115.582
-110.991
-124.987
-199.726
-124.978
376.231
1190.02
2056.56
-529.302
-191.018
-150.845
-113.167
-109.543
-103.635
-113.227
-106.181
-107.902
-108.101
-99.1428
-110.878
-88.9455
-123.275
-129.491
-220.909
117.73
-590.893
-1567.8
4487.89
-513.06
-210.512
-125.322
-116.05
-103.315
-96.971
-92.6721
-96.397
-104.448
-95.9398
-91.542
-97.6238
-79.2901
-103.083
-75.0993
-122.6
153.27
67.6425
1404.78
1511.42
604.517
-195.601
-20.9664
-98.6137
-64.6338
-93.98
-99.3143
-85.3035
-94.2251
-94.4221
-83.8925
-67.0902
-94.6729
-118.977
-70.683
-73.0363
-30.1966
231.112
1355.68
445.286
213.713
-37.2272
-53.0669
-75.9795
-83.3785
-70.4534
-90.7559
-91.1359
-94.2015
-102.964
-98.9006
-105.629
-95.3395
-120.993
-103.028
-84.2809
-98.6064
73.5968
26.9695
3.15731
-120.849
-61.7795
-111.725
-89.1839
-89.829
-97.3283
-100.708
-95.9591
-102.07
-108.118
-103.013
-106.605
-84.6824
-100.738
-132.304
-140.28
-118.138
-110.855
-8.2178
21.2062
-67.7448
-109.404
-115.144
-84.4054
-110.298
-111.544
-111.215
-104.651
-104.987
-115.695
-117.263
-120.493
-110.426
-105.805
-98.1896
-127.243
-119.857
-100.37
-65.1662
-62.3757
-105.663
-113.34
-122.529
-114.498
-127.753
-110.354
-119.794
-112.568
-117.426
-116.081
-114.489
-121.593
-118.212
-125.422
-113.404
-99.8427
-82.2212
-77.3537
-77.1532
-62.3487
-79.3028
-78.9787
-115.53
-111.183
-108.489
-113.006
-121.796
-116.583
-118.178
-117.725
-117.355
-122.16
-118.37
-119.193
-125.612
-128.301
-109.144
-87.4604
-62.901
-91.5457
-89.1726
-112.07
-131.096
-113.99
-117.01
-122.77
-120.594
-118.617
-118.051
-117.786
-113.342
-117.194
-124.392
-117.207
-115.9
-120.363
-112.529
-100.373
-83.1516
-69.0177
-90.0591
-122.951
-108.762
-109.51
-122.739
-114.041
-120.198
-115.177
-117.994
-121.343
-119.928
-115.156
-119.105
-126.254
-114.518
-115.535
-114.349
-100.98
-95.9279
-81.434
-107.896
-110.472
-112.881
-119.695
-117.781
-119.393
-122.443
-118.115
-121.716
-114.813
-118.541
-120.541
-111.985
-117.077
-118.044
-110.791
-105.512
-99.8363
-83.4784
-89.8067
-97.947
-103.985
-114.372
-110.478
-120.307
-116.773
-118.242
-120.069
-116.54
-119.995
-114.604
-121.263
-120.289
-118.073
-117.094
-116.491
-107.664
-102.391
-95.7356
-94.6257
-103.207
-105.08
-115.061
-117.478
-119.144
-118.12
-121.837
-116.534
-119.548
-17.8637
-19.1684
-17.796
-17.2456
-20.5697
-18.1004
-20.898
-20.4091
-20.1715
-18.6509
-20.9139
-19.9963
-19.3726
-19.3988
-17.8559
-18.2227
-20.0701
-17.1827
-17.4346
-18.8519
-17.7061
-17.2313
-17.0954
-20.7205
-17.7001
-18.3993
-18.0162
-18.8508
-17.8414
-18.8403
-17.9003
-18.5425
-17.2485
-20.0066
-18.6161
-17.5472
-17.0825
-20.4682
-17.1609
-18.0035
-18.2246
-18.2543
-20.9488
-18.2525
-21.8
-18.5321
-17.5018
-19.2585
-14.2981
-20.6425
-22.6102
-19.6087
-17.5436
-19.5073
-16.88
-20.9861
-21.2287
-18.2708
-16.049
-19.3007
-18.3946
-18.1879
-19.6615
-18.9925
-17.6004
-16.7974
-19.5251
-17.6841
-18.8833
-12.6453
-14.3019
-13.4601
-13.2181
-13.7997
-17.1826
-18.9626
-19.5514
-17.0989
-19.243
-15.5572
-18.3884
-16.6333
-20.198
-18.3186
-19.2712
-17.6959
-16.6661
-14.1358
-11.7901
-15.3326
-18.0117
-15.6292
-14.7414
-14.0742
-15.8745
-17.1784
-17.0322
-20.0863
-20.3048
-20.3357
-19.9489
-18.1726
-18.7396
-15.8452
-20.0721
-16.7203
-16.2914
-24.1078
-46.977
-42.6603
13.5208
4.14081
-5.05689
-5.64329
-8.97803
-13.0156
-14.1527
-18.8453
-19.3646
-18.2672
-18.4935
-18.9283
-18.1772
-16.989
-16.0558
-11.6027
-8.89766
-8.07553
23.2524
-10.8709
-94.3996
-12.6366
-10.6648
-6.84692
-9.82392
-12.2243
-15.3358
-19.0502
-17.0949
-17.8558
-19.8725
-16.2588
-15.7157
-11.4639
-10.2637
-12.0344
-5.01889
-1.42667
445.313
960.676
377.153
50.794
-1.42719
12.5276
-4.67134
-9.37956
-13.9962
-15.4839
-20.1462
-19.2522
-17.5331
-18.2286
-17.9728
-15.4461
-7.26155
-15.9754
-17.7373
42.3327
953.508
2164.15
1322.55
-121.215
-2.80238
11.682
1.53826
-11.5762
-16.0709
-19.1881
-18.7582
-18.0804
-19.4593
-21.4628
-15.9034
-14.44
-7.68938
-1.35535
3.27948
11.2004
223.871
285.312
432.047
-109.069
72.9927
7.21252
8.93196
-12.7091
-10.5974
-19.9526
-18.0051
-19.7902
-20.5016
-18.5269
-24.9562
-17.6175
-2.54576
7.09338
9.96109
59.3875
18.5391
68.9296
65.5585
35.1311
42.8953
15.7725
7.49362
-7.76005
-13.9029
-18.9706
-18.677
-20.2155
-19.1791
-19.2565
-18.427
-11.826
-6.08835
3.11839
2.99719
40.3358
15.0018
52.3967
37.9043
34.2278
39.0487
11.0412
4.59616
-11.4783
-13.6799
-20.5274
-19.4303
-19.598
-19.1755
-19.9587
-19.0997
-18.0401
-11.8933
0.245203
2.57587
24.8868
30.1755
15.1757
27.1877
38.3475
27.7248
4.00554
-4.80085
-9.06903
-12.4762
-17.4229
-20.7217
-19.2092
-20.0288
-16.0705
-18.1183
-17.5022
-15.2991
-4.36265
-5.79501
6.46366
11.3938
22.6957
19.5137
12.8902
4.65297
-7.69264
-7.66346
-12.5483
-16.0152
-18.6051
-17.956
-17.5843
-19.487
-19.7613
-18.8614
-15.873
-16.0818
-8.55047
-7.14328
-4.86659
2.62199
8.75996
4.22356
1.42876
-6.56255
-8.17874
-11.9207
-17.8973
-15.5353
-18.3072
-18.848
-19.2508
-20.4311
-19.4104
-20.4184
-17.0011
-19.278
-17.1711
-10.935
-9.76904
-12.071
-7.85826
-9.74214
-12.8193
-9.24092
-12.9994
-16.359
-19.2962
-19.1458
-19.8738
-19.315
-20.3945
-18.0496
-20.3419
-22.1733
-16.6706
-16.2817
-16.5185
-15.6159
-10.7336
-14.5183
-13.3336
-17.0393
-14.0845
-10.6926
-20.4485
-18.2955
-17.3896
-20.2246
-16.6363
-21.5814
-17.7019
-18.6859
-16.1416
-20.4092
-21.7894
-17.9666
-19.032
-22.2915
-15.3267
-15.8578
-22.0741
-17.9863
-15.5899
-18.614
-18.2521
-19.2009
-21.0016
-16.4184
-19.8312
-17.5398
-18.1831
-20.6073
-19.607
-16.0572
-20.1447
-21.7262
-18.6145
-17.5137
-20.236
-18.0309
-18.4336
-19.0782
-20.8666
-18.6156
-19.4909
-21.2432
-16.2893
-21.6322
-17.5183
-17.6101
-20.1242
-16.21
-20.541
-19.6225
-16.3822
-19.1464
-19.1271
-19.1314
-19.6223
-20.1454
-19.9586
-20.5594
-19.616
-21.9781
-19.3938
-18.9452
-20.4637
-17.665
-18.1739
-20.1335
-17.4611
-19.1941
-19.2981
-19.1507
-19.1018
-19.4752
-18.6038
-19.0883
-18.2871
-17.9749
-18.0021
-17.7954
-18.2752
-18.4232
-18.6943
-18.9095
-19.1109
-19.3446
-19.4102
-19.0426
-19.457
-19.1397
-18.821
-19.1698
-19.0772
-18.4826
-18.2194
-17.6975
-16.2736
-16.5237
-15.9757
-16.4028
-16.3512
-17.4023
-17.9828
-18.2666
-18.9273
-18.5578
-19.4218
-19.1189
-19.272
-19.3651
-19.1397
-19.5344
-18.6321
-19.1522
-17.3445
-16.9843
-15.3418
-13.6412
-12.3966
-12.3698
-14.6528
-15.4711
-16.9835
-17.1475
-18.6167
-19.0853
-19.3071
-19.0863
-19.298
-19.1513
-18.867
-18.9862
-17.7703
-16.9747
-14.8259
-12.6327
-9.40537
-4.52542
-2.17594
-3.60918
-7.14042
-10.6844
-12.7044
-15.2193
-16.9615
-17.6977
-18.9161
-19.2543
-18.9973
-19.2957
-18.7989
-18.6575
-16.8408
-16.051
-11.7528
-8.63142
-0.149954
8.48462
16.66
8.92243
2.09377
-4.04214
-9.90928
-12.7781
-16.6571
-16.7744
-18.9291
-19.1375
-19.785
-19.0272
-18.2493
-17.2276
-14.5216
-11.5268
-4.49963
4.8708
20.9539
44.6547
62.7515
43.639
28.5539
11.935
-0.0991555
-7.32222
-12.6763
-14.8802
-17.4295
-18.6248
-18.8033
-18.9097
-17.7359
-16.5055
-13.0652
-8.98436
4.08006
19.797
55.1273
108.498
145.748
106.142
61.6698
23.9389
5.99348
-1.5119
-11.1296
-14.0558
-17.1719
-18.0449
-19.1001
-18.5353
-17.0038
-14.8944
-11.0494
-2.16873
16.2306
46.0348
85.1589
137.203
311.649
139.823
159.193
58.3702
22.5868
8.533
-5.82872
-11.8291
-15.7766
-17.6435
-18.7442
-18.392
-16.7474
-14.8652
-8.41305
1.73013
29.9388
72.5243
96.3478
388.164
892.071
162.947
218.772
97.5461
37.9272
16.5615
-2.5338
-9.06584
-16.1007
-17.1441
-18.8349
-18.1837
-16.5802
-14.0214
-7.31301
2.71729
26.9961
63.9564
116.819
164.545
197.787
109.329
163.708
95.2274
43.7055
19.8829
-0.587253
-9.22878
-14.662
-16.7891
-18.3202
-18.3072
-16.3958
-14.5956
-6.96974
-0.187725
20.7123
45.2444
97.5235
109.419
54.4621
100.406
113.089
80.3176
36.3658
17.1014
-1.00065
-8.06321
-14.6923
-17.0559
-18.6034
-18.4303
-16.6438
-15.6848
-10.3277
-4.44911
13.5886
26.545
67.4854
98.2374
133.425
103.891
77.9449
57.0941
21.312
10.6101
-4.4898
-9.62995
-15.8285
-17.2655
-18.6877
-18.6249
-17.2662
-15.6891
-12.3131
-7.4856
4.32123
12.9844
37.0923
58.6189
77.6523
70.6879
53.5317
33.0857
10.2363
4.48153
-7.71548
-12.9449
-16.9183
-17.9833
-18.9239
-19.1609
-18.2244
-17.6612
-14.1081
-12.843
-4.63973
-0.438749
11.245
21.2158
34.5333
32.1777
19.7739
9.95557
-1.05509
-3.79591
-12.3645
-14.7062
-17.891
-18.4407
-19.439
-19.1188
-18.4181
-17.7775
-15.1254
-13.5298
-8.40442
-3.98592
4.30931
9.51916
14.5786
15.0383
9.42731
4.22529
-3.91667
-8.82568
-13.4845
-15.2512
-18.3675
-18.6494
-19.4698
-19.7502
-19.1021
-19.007
-17.7554
-16.6256
-13.2156
-12.7367
-7.66829
-5.12298
-2.20233
-1.88811
-5.27746
-7.74568
-12.4531
-13.981
-17.0106
-17.8658
-19.3903
-19.4418
-20.011
-19.4413
-19.4939
-19.4803
-17.9421
-17.6586
-15.8561
-14.8575
-13.0756
-10.6236
-8.75421
-9.05942
-10.5173
-13.1181
-14.9575
-16.2906
-18.1493
-18.9176
-19.2024
-19.7276
-19.7049
-19.4676
-19.2983
-20.0538
-18.8783
-19.1794
-18.1229
-17.9937
-16.1649
-16.3245
-14.7739
-16.2056
-16.2292
-16.7685
-18.2627
-18.0658
-19.8959
-19.1094
-19.9231
-19.7982
-19.7046
-19.922
-19.3295
-19.3167
-19.631
-19.5569
-18.5439
-18.6062
-17.5023
-17.465
-16.8333
-17.1601
-17.7918
-17.7133
-18.3364
-19.402
-19.3665
-19.7345
-19.8115
-19.3671
-19.9409
-19.5687
-19.9334
-19.6128
-19.3749
-19.8184
-19.4092
-19.3759
-18.8813
-18.9224
-18.4127
-18.7177
-18.9055
-19.2597
-19.6005
-19.5389
-20.0817
-19.7351
-19.7229
-19.9447
-19.8228
-15.7531
-15.645
-15.6246
-15.2968
-15.2049
-14.5223
-14.3688
-13.7104
-13.5291
-13.3037
-13.4321
-13.7477
-13.9396
-14.5267
-14.7831
-15.3361
-15.4468
-15.8392
-15.7613
-15.921
-15.652
-15.4706
-15.4491
-14.9397
-14.5638
-13.7517
-13.183
-12.2738
-11.5428
-11.2853
-11.3666
-11.8867
-12.5474
-13.4206
-13.9948
-14.8494
-15.0751
-15.5918
-15.6814
-15.8155
-15.6964
-15.4401
-15.3563
-14.4834
-14.0999
-12.5152
-11.8117
-9.67749
-8.96261
-8.23132
-8.34833
-9.41936
-10.304
-12.1374
-12.842
-14.3362
-14.7883
-15.5621
-15.6481
-15.8271
-15.3533
-15.0067
-14.5125
-13.2571
-11.9939
-9.53069
-7.09249
-3.71658
-1.3956
0.0469671
0.0306529
-2.03855
-4.8439
-7.77977
-10.1234
-12.3588
-13.5748
-14.7992
-15.2871
-15.5813
-15.3391
-14.76
-14.172
-12.0958
-10.563
-5.95607
-2.74885
3.72824
7.72909
9.80189
10.1896
5.88418
1.64439
-4.40694
-7.0614
-11.3689
-12.5778
-14.6158
-15.0342
-15.6523
-14.8051
-14.0142
-12.8135
-9.87524
-6.10635
0.840134
7.8192
18.4288
28.8134
34.4849
33.5107
24.9851
15.0606
5.22517
-0.985655
-7.32014
-10.5628
-13.2379
-14.4095
-15.0593
-14.7046
-13.5816
-12.4007
-7.78578
-3.28445
7.00355
14.5146
32.2349
57.1475
77.7711
63.7241
41.9567
25.0945
10.0409
4.24721
-5.299
-8.73995
-12.9085
-14.0919
-15.1259
-14.2765
-12.9969
-10.6419
-5.20353
1.64125
14.8173
27.0103
61.6032
96.6209
84.9968
97.4925
83.3828
50.041
22.8401
12.1835
-0.307362
-6.38161
-11.4156
-13.4345
-14.734
-14.3398
-12.7014
-10.2751
-3.69324
3.60626
19.6593
35.3504
88.4754
106.66
116.282
119.474
107.332
65.315
30.2523
17.5944
1.61623
-4.95092
-11.1625
-13.2176
-14.8127
-14.3177
-12.5883
-9.89305
-2.80901
6.04831
24.3407
44.9707
83.3725
130.855
133.255
126.436
103.267
75.0376
40.7487
21.7492
4.26329
-3.99587
-10.8938
-13.2137
-14.7501
-14.47
-12.8306
-10.0444
-3.44435
4.69566
22.0592
40.3188
68.4374
83.2984
73.5722
75.0505
81.3701
66.6989
37.5805
19.931
3.23726
-4.36539
-10.7129
-13.2611
-14.9107
-14.7344
-13.2202
-11.1679
-4.84311
1.1269
16.2295
27.3845
55.6993
66.6515
69.8196
73.4931
68.9992
53.9293
26.0862
15.2362
0.0310597
-5.76253
-11.5766
-13.5316
-15.0747
-14.8155
-13.5709
-11.8241
-6.82164
-1.31974
9.58849
16.9939
38.0166
52.7392
60.9088
61.0073
52.277
36.6746
16.1106
8.44303
-2.44401
-7.44584
-12.0762
-14.0085
-15.2034
-15.4106
-14.4383
-13.3378
-9.62942
-6.64981
1.76863
5.08353
16.3313
24.4276
34.1108
34.0198
24.4253
15.5998
4.48497
0.955524
-7.29917
-9.88454
-13.7585
-14.6812
-15.701
-15.5573
-14.8243
-13.9071
-11.4959
-8.80411
-3.32318
1.06123
8.18732
14.0373
17.9173
17.8414
13.9545
7.72926
0.698329
-3.62636
-9.17003
-11.6847
-14.1633
-15.0387
-15.7866
-16.1394
-15.6154
-15.2364
-13.4663
-12.5746
-8.82049
-7.21452
-2.63382
-0.667208
1.93032
1.87064
-0.861077
-2.97133
-7.52416
-9.17661
-12.8305
-13.6653
-15.463
-15.8183
-16.3409
-16.176
-15.916
-15.4868
-14.4953
-13.5722
-11.6139
-9.95729
-7.72526
-6.28741
-5.17108
-5.21026
-6.40331
-7.97541
-10.0471
-11.8195
-13.7713
-14.7536
-15.7428
-16.0362
-16.3686
-16.4515
-16.304
-16.3672
-15.5167
-15.4507
-14.2064
-13.8485
-12.3864
-12.1908
-11.3634
-11.3417
-12.1985
-12.4844
-13.9752
-14.2946
-15.6772
-15.7935
-16.4373
-16.4924
-16.6311
-16.4947
-16.2987
-16.3343
-16.0195
-15.8071
-15.1199
-14.8703
-14.1679
-14.0278
-13.782
-13.8042
-13.9828
-14.2645
-14.8442
-15.2906
-15.9671
-16.1151
-16.5206
-16.4552
-16.6194
-16.6021
-16.5139
-16.5054
-16.2803
-16.3414
-15.8687
-15.8802
-15.4354
-15.5027
-15.3451
-15.4406
-15.5455
-15.5456
-15.956
-15.99
-16.487
-16.4484
-16.6687
-16.6309
-16.7372
-16.0569
-15.8894
-15.8554
-15.3752
-15.205
-14.4434
-14.1316
-13.3401
-13.0847
-12.7788
-12.8167
-13.2217
-13.5698
-14.3618
-14.6845
-15.4306
-15.5821
-16.0676
-16.0864
-16.2531
-15.9111
-15.717
-15.572
-14.9845
-14.5593
-13.6154
-12.8938
-11.8711
-11.2458
-10.8393
-10.9041
-11.452
-12.1466
-13.1774
-13.888
-14.824
-15.2264
-15.7868
-15.9361
-16.12
-15.9222
-15.6117
-15.4648
-14.4938
-14.0349
-12.3445
-11.5069
-9.54081
-8.76963
-7.90741
-7.98581
-9.09168
-10.0031
-11.949
-12.7412
-14.3619
-14.782
-15.733
-15.8615
-16.1501
-15.4986
-15.0976
-14.5537
-13.2273
-11.8512
-9.38643
-7.05697
-4.07553
-1.85925
-0.59501
-0.682854
-2.39101
-4.74709
-7.71706
-9.95594
-12.3138
-13.6003
-14.8825
-15.3948
-15.7805
-15.4326
-14.7757
-14.2212
-11.9829
-10.49
-6.12568
-3.49391
2.27844
5.16356
7.97811
7.95565
4.27304
1.15683
-4.53342
-6.98358
-11.1514
-12.4971
-14.6172
-15.1259
-15.7607
-14.7939
-13.9654
-12.7023
-9.71348
-6.34438
0.0308273
5.96745
14.8212
21.6984
24.6105
25.4998
20.3886
13.0252
4.41925
-1.13428
-7.26116
-10.3938
-13.1948
-14.3735
-15.1684
-14.6423
-13.4356
-12.1268
-7.76629
-4.23501
5.1963
10.2111
22.8176
30.6849
36.34
42.7841
31.482
20.8499
8.17778
3.67361
-5.35437
-8.5766
-12.7264
-13.9148
-15.074
-14.0549
-12.6661
-10.6043
-5.29921
0.687611
12.45
20.585
39.8917
49.7533
51.4171
64.8107
57.268
40.5432
18.9274
10.8161
-0.57293
-6.19778
-11.1802
-13.1738
-14.5186
-13.9793
-12.2647
-10.0826
-3.60117
2.66485
17.8696
27.2691
50.0355
59.4082
67.2739
80.9161
69.9538
54.1918
26.6382
16.2564
1.36006
-4.54912
-10.7326
-12.8067
-14.4524
-13.8003
-11.9837
-9.45179
-2.55455
5.23174
21.9749
38.7067
66.5174
87.0718
94.1418
99.4039
87.9117
65.0672
37.3859
20.4918
4.10581
-3.35754
-10.0868
-12.5346
-14.2834
-13.9421
-12.1804
-9.68911
-2.87897
4.60126
20.7295
36.2081
61.0222
71.6729
61.7759
70.4505
75.2614
60.9445
34.9753
19.3732
3.49838
-3.67126
-10.284
-12.6453
-14.3851
-14.3725
-12.7435
-10.7569
-4.62091
0.997203
15.6626
24.5365
49.3402
60.8679
65.2012
68.7738
62.9493
49.3292
23.7601
14.6903
0.209044
-5.18347
-11.237
-13.1626
-14.7729
-14.6685
-13.3761
-11.5214
-6.74925
-1.71547
9.11895
15.5133
33.8303
47.2363
56.155
56.7443
47.9959
33.3454
14.7735
8.34505
-2.29608
-7.20104
-11.9273
-13.7551
-15.0294
-15.4198
-14.3194
-13.2921
-9.34855
-6.72377
1.55335
4.68355
14.7665
22.2501
32.0071
31.9071
22.3353
14.2891
4.19088
1.03823
-7.16501
-9.78593
-13.6469
-14.6599
-15.7361
-15.6758
-14.94
-13.9426
-11.3273
-8.65483
-3.27785
1.16926
8.00814
13.4858
17.5888
17.4506
13.4788
7.72189
0.80862
-3.65553
-8.99102
-11.639
-14.2051
-15.2109
-15.9429
-16.3725
-15.7963
-15.4482
-13.5215
-12.5064
-8.83965
-7.15016
-2.55691
-0.592705
2.27625
2.1533
-0.66573
-2.80058
-7.4281
-9.08517
-12.7663
-13.7398
-15.6802
-16.0318
-16.6095
-16.4786
-16.1419
-15.7498
-14.6656
-13.64
-11.6163
-9.90221
-7.56654
-5.84346
-4.59791
-4.61071
-5.88959
-7.70391
-10.1107
-11.8201
-13.8339
-14.8555
-15.9644
-16.3491
-16.6893
-16.9041
-16.6588
-16.6282
-15.8087
-15.6354
-14.266
-13.8067
-12.276
-11.7971
-11.0613
-11.0213
-11.8491
-12.4005
-13.9879
-14.4171
-15.7974
-16.0151
-16.8151
-16.8478
-17.094
-16.9077
-16.756
-16.7096
-16.2663
-16.0207
-15.3087
-14.8481
-14.0847
-13.6619
-13.2972
-13.3333
-13.718
-14.1848
-14.9728
-15.4432
-16.1868
-16.4298
-16.8813
-16.9294
-17.077
-17.0627
-16.9305
-16.974
-16.6204
-16.619
-16.0402
-15.9319
-15.3386
-15.2331
-14.9717
-15.003
-15.2901
-15.4393
-16.0516
-16.1803
-16.7683
-16.782
-17.141
-17.0913
-17.2246
-15.6763
-15.4951
-15.4263
-14.9008
-14.6888
-13.8866
-13.5413
-12.752
-12.4775
-12.167
-12.2129
-12.604
-12.9412
-13.7604
-14.1266
-14.9286
-15.1357
-15.6562
-15.7201
-15.8989
-15.517
-15.3125
-15.1273
-14.5131
-14.0496
-13.0796
-12.3614
-11.3754
-10.7884
-10.3703
-10.4084
-10.9208
-11.5858
-12.6091
-13.3429
-14.3103
-14.7679
-15.3693
-15.5497
-15.7506
-15.4965
-15.1763
-15.0016
-14.01
-13.5432
-11.8856
-11.1223
-9.31862
-8.64851
-7.80691
-7.84772
-8.81254
-9.585
-11.4378
-12.2161
-13.854
-14.3051
-15.2781
-15.4403
-15.7528
-15.042
-14.6376
-14.0829
-12.7652
-11.4297
-9.07455
-6.97898
-4.34442
-2.43881
-1.16666
-1.16104
-2.61227
-4.66859
-7.37902
-9.47954
-11.814
-13.1189
-14.4034
-14.9371
-15.3327
-14.9373
-14.285
-13.7336
-11.5617
-10.1942
-6.13467
-4.02623
0.956869
3.13588
5.89341
6.09207
2.96888
0.562685
-4.5451
-6.65832
-10.6717
-11.9972
-14.1127
-14.6316
-15.2666
-14.2671
-13.4555
-12.2403
-9.39721
-6.33475
-0.570504
4.3402
11.6223
17.1839
21.0698
21.6426
17.2963
11.3458
3.78466
-1.18114
-6.88652
-9.89592
-12.677
-13.8491
-14.6377
-14.0809
-12.9233
-11.6891
-7.58459
-4.57573
3.85771
7.25323
17.5714
24.874
34.9311
36.4735
25.5101
17.5926
6.77719
3.22666
-5.19515
-8.14579
-12.1763
-13.3554
-14.493
-13.4749
-12.1388
-10.1323
-5.28066
-0.0457763
10.4528
16.7997
35.0622
47.2601
54.4511
59.7923
49.8273
35.768
16.7962
10.0291
-0.610774
-5.84893
-10.6484
-12.5985
-13.9101
-13.3631
-11.7284
-9.68251
-3.63487
1.84216
15.6551
24.0424
49.1758
60.1975
71.4848
81.3316
65.6361
49.9147
24.1159
15.2934
1.24924
-4.2152
-10.2085
-12.2015
-13.8128
-13.198
-11.4763
-9.02699
-2.5108
4.48266
19.7757
34.4687
60.0116
78.9605
86.3183
93.0949
80.547
60.5843
34.7217
19.5011
3.97581
-3.0702
-9.52634
-11.9269
-13.6314
-13.3304
-11.6135
-9.19835
-2.76431
4.07989
19.1471
32.9398
55.9289
66.6276
60.5482
68.8231
70.8532
57.3935
33.0695
18.7083
3.55221
-3.3079
-9.71255
-12.06
-13.7519
-13.7736
-12.172
-10.2471
-4.30667
0.885299
14.7669
22.5746
46.0142
57.001
62.4349
65.7786
59.8645
46.9813
22.6753
14.4541
0.471939
-4.77771
-10.6884
-12.5775
-14.1612
-14.1168
-12.841
-10.9956
-6.3257
-1.49478
8.80422
14.5126
31.909
44.6044
53.2918
54.1519
45.9419
32.1668
14.3721
8.43651
-1.91599
-6.77624
-11.3862
-13.1988
-14.466
-14.9185
-13.825
-12.7906
-8.92354
-6.3443
1.65686
4.42955
14.071
21.1093
30.6495
30.7463
21.5233
13.9611
4.23444
1.33734
-6.70166
-9.26961
-13.1147
-14.1429
-15.2291
-15.2443
-14.5031
-13.4669
-10.8789
-8.25021
-2.96487
1.27709
7.97462
13.2684
17.2294
17.1874
13.3844
7.84073
1.09862
-3.2416
-8.52804
-11.1702
-13.7496
-14.7796
-15.5117
-16.0034
-15.4152
-15.0236
-13.0724
-12.0541
-8.40864
-6.81221
-2.29413
-0.358825
2.41206
2.35937
-0.385142
-2.44299
-6.9882
-8.63397
-12.3013
-13.321
-15.265
-15.6501
-16.2355
-16.167
-15.8183
-15.3968
-14.268
-13.2071
-11.183
-9.47411
-7.19162
-5.46967
-4.22576
-4.26696
-5.52387
-7.30714
-9.61244
-11.3691
-13.4107
-14.4721
-15.6001
-16.021
-16.3696
-16.6463
-16.3763
-16.3103
-15.4735
-15.2243
-13.8113
-13.3325
-11.7778
-11.2774
-10.4963
-10.5363
-11.3387
-11.8804
-13.4706
-13.9786
-15.3971
-15.6523
-16.4931
-16.5579
-16.8292
-16.6824
-16.5213
-16.4304
-15.9484
-15.6634
-14.8932
-14.3934
-13.5977
-13.1333
-12.7727
-12.7947
-13.1888
-13.688
-14.5126
-15.0326
-15.8185
-16.1108
-16.595
-16.6888
-16.8508
-16.8477
-16.7057
-16.7218
-16.3178
-16.268
-15.6411
-15.4821
-14.8582
-14.6982
-14.4329
-14.4528
-14.7519
-14.944
-15.5941
-15.7748
-16.4142
-16.4732
-16.8814
-16.8667
-17.0105
-15.5556
-15.3681
-15.2923
-14.7556
-14.5421
-13.7379
-13.3983
-12.6151
-12.3399
-12.0175
-12.0514
-12.436
-12.7657
-13.5862
-13.9529
-14.7685
-14.9879
-15.5245
-15.5997
-15.7863
-15.3908
-15.1815
-14.9918
-14.3761
-13.9191
-12.9628
-12.273
-11.317
-10.7343
-10.3156
-10.3476
-10.8304
-11.4728
-12.4722
-13.1906
-14.1577
-14.6202
-15.2342
-15.4224
-15.6302
-15.3653
-15.0432
-14.8759
-13.8946
-13.4604
-11.8541
-11.173
-9.43629
-8.81493
-7.97594
-7.99961
-8.92544
-9.61301
-11.4002
-12.1147
-13.7285
-14.1658
-15.1408
-15.304
-15.6228
-14.9021
-14.5023
-13.97
-12.6877
-11.4265
-9.18787
-7.2449
-4.77423
-2.9506
-1.67913
-1.67128
-3.04449
-4.94546
-7.49236
-9.47895
-11.7269
-12.9904
-14.2622
-14.7887
-15.184
-14.7931
-14.1541
-13.6502
-11.5509
-10.3352
-6.4845
-4.67425
0.0090289
2.0434
4.90097
5.00985
1.97979
-0.144215
-4.94699
-6.81446
-10.6813
-11.896
-13.979
-14.472
-15.104
-14.1157
-13.3314
-12.1867
-9.47167
-6.64326
-1.21668
3.25775
10.0715
15.4592
19.3799
19.7865
15.6641
10.1168
3.04625
-1.53308
-7.0039
-9.84777
-12.5468
-13.6795
-14.4555
-13.922
-12.7977
-11.6763
-7.73571
-5.06625
2.95116
5.78762
15.444
22.3826
32.8598
34.0335
23.1368
15.7877
5.66937
2.65958
-5.43523
-8.13596
-12.0643
-13.1729
-14.2883
-13.2971
-12.0068
-10.1328
-5.48921
-0.648379
9.43455
15.1859
32.4158
45.483
57.1937
58.8737
47.2011
33.4982
15.4045
9.29294
-0.959299
-5.87781
-10.5318
-12.3976
-13.6787
-13.1644
-11.5764
-9.67862
-3.8525
1.1997
14.6961
22.3811
46.3148
61.2184
81.2828
82.7835
63.0068
47.6204
22.6728
14.5378
0.869175
-4.24876
-10.0874
-11.9754
-13.555
-12.9712
-11.2925
-9.0051
-2.72423
3.85042
18.6555
32.6101
57.0932
75.9025
87.3504
90.0537
77.2001
58.1211
33.1614
18.6736
3.62619
-3.08465
-9.39141
-11.6831
-13.3571
-13.101
-11.4303
-9.16662
-2.91381
3.55238
18.1202
31.1691
53.5378
64.3569
59.7483
69.1345
69.2004
55.6182
31.7622
18.0288
3.25379
-3.2909
-9.5445
-11.8089
-13.4745
-13.5609
-11.9944
-10.1747
-4.3913
0.489293
14.0204
21.2269
44.2404
55.6187
61.5951
65.0811
58.2776
45.4203
21.5833
13.9355
0.245374
-4.72203
-10.5232
-12.3448
-13.9094
-13.9283
-12.6723
-10.9036
-6.3621
-1.74877
8.29578
13.5943
30.5395
43.1803
52.0373
53.0278
44.5648
31.0239
13.6614
8.08855
-2.01881
-6.67685
-11.2281
-12.9949
-14.2474
-14.7602
-13.6788
-12.6807
-8.8797
-6.46328
1.37272
3.9149
13.2746
20.1745
29.681
29.8618
20.6191
13.3027
3.85445
1.18243
-6.70857
-9.1607
-12.9715
-13.967
-15.0461
-15.1133
-14.3774
-13.36
-10.8026
-8.23746
-3.07069
1.05292
7.60872
12.837
16.7511
16.7586
12.9935
7.56005
0.965812
-3.26211
-8.46792
-11.0537
-13.6138
-14.631
-15.3659
-15.9031
-15.3127
-14.9274
-12.9806
-11.9979
-8.3897
-6.85461
-2.41264
-0.539211
2.24166
2.20568
-0.528788
-2.50659
-6.9883
-8.57609
-12.2069
-13.2023
-15.1499
-15.537
-16.1268
-16.0911
-15.7376
-15.3118
-14.1725
-13.1153
-11.098
-9.39027
-7.11327
-5.41381
-4.16162
-4.18903
-5.44456
-7.20763
-9.51738
-11.2571
-13.2945
-14.3636
-15.5064
-15.9352
-16.289
-16.5977
-16.3181
-16.2442
-15.3904
-15.1286
-13.7092
-13.2207
-11.6477
-11.1399
-10.3435
-10.3701
-11.1937
-11.7434
-13.3415
-13.8554
-15.291
-15.5622
-16.4198
-16.4967
-16.777
-16.6503
-16.4808
-16.3753
-15.875
-15.5697
-14.7754
-14.2502
-13.4298
-12.9412
-12.559
-12.5795
-12.9922
-13.5139
-14.3595
-14.9066
-15.7155
-16.0313
-16.5365
-16.6455
-16.8166
-16.8246
-16.6743
-16.6774
-16.2499
-16.1773
-15.5228
-15.3346
-14.6764
-14.4888
-14.2017
-14.2211
-14.5401
-14.7588
-15.4411
-15.6499
-16.3182
-16.4008
-16.8335
-16.8342
-16.9862
-15.4185
-15.2314
-15.1574
-14.6249
-14.4205
-13.6279
-13.3034
-12.5317
-12.2636
-11.9408
-11.967
-12.341
-12.6552
-13.4621
-13.8169
-14.6267
-14.8437
-15.3814
-15.4585
-15.6464
-15.2542
-15.0466
-14.8618
-14.2556
-13.8149
-12.8817
-12.218
-11.2842
-10.714
-10.2966
-10.3204
-10.7887
-11.4055
-12.3785
-13.075
-14.0271
-14.4811
-15.0925
-15.2802
-15.4884
-15.23
-14.9126
-14.7573
-13.7963
-13.3968
-11.8336
-11.2042
-9.5152
-8.92461
-8.09071
-8.10659
-9.00082
-9.64079
-11.376
-12.0426
-13.6237
-14.0379
-15.0025
-15.16
-15.4773
-14.7697
-14.3795
-13.8692
-12.6256
-11.4242
-9.26517
-7.41076
-5.02293
-3.23494
-1.9653
-1.95304
-3.28666
-5.11923
-7.57414
-9.47754
-11.6623
-12.8833
-14.1308
-14.6439
-15.0338
-14.6648
-14.0418
-13.5748
-11.5371
-10.421
-6.69353
-5.0315
-0.473035
1.51438
4.38547
4.47163
1.47832
-0.533056
-5.18685
-6.91235
-10.6756
-11.8165
-13.8576
-14.3274
-14.9491
-13.9913
-13.2311
-12.1411
-9.51662
-6.82669
-1.57618
2.70946
9.38458
14.8353
18.8965
19.1202
14.9477
9.49296
2.63421
-1.75222
-7.07204
-9.80416
-12.438
-13.5342
-14.2944
-13.7999
-12.707
-11.6583
-7.83055
-5.33811
2.485
5.13445
14.7613
22.1384
33.113
33.5401
22.3103
14.9838
5.10739
2.33781
-5.57787
-8.126
-11.9695
-13.0268
-14.1205
-13.1724
-11.9211
-10.1346
-5.61817
-0.977442
8.91737
14.5403
32.0306
46.1471
58.3889
58.9796
46.5819
32.5733
14.7263
8.89299
-1.15711
-5.89508
-10.4456
-12.2477
-13.5024
-13.0354
-11.4899
-9.68594
-3.99431
0.839728
14.1568
21.7625
46.2597
62.1293
82.2487
82.4954
62.5278
46.7567
21.9456
14.1062
0.638861
-4.27693
-10.0057
-11.8225
-13.3715
-12.8371
-11.2009
-9.00709
-2.86584
3.48798
18.0545
31.8011
56.3964
75.6589
87.1691
89.5174
75.8489
57.1093
32.3311
18.1897
3.39389
-3.11097
-9.3074
-11.5262
-13.1686
-12.9614
-11.3299
-9.1487
-3.03373
3.2075
17.5319
30.3
52.6099
63.6777
60.6467
70.38
68.8152
54.9083
31.1107
17.6252
3.06659
-3.30149
-9.45433
-11.6503
-13.2859
-13.4178
-11.8839
-10.1333
-4.46116
0.237889
13.5679
20.5586
43.4961
55.0968
61.4777
65.1116
57.7167
44.7086
21.0209
13.6178
0.11486
-4.70181
-10.4174
-12.1848
-13.7238
-13.7867
-12.5564
-10.8381
-6.37965
-1.90103
7.9724
13.1082
29.917
42.6162
51.5312
52.6551
43.9692
30.4948
13.2921
7.88815
-2.07872
-6.6306
-11.1114
-12.8386
-14.0717
-14.6245
-13.5597
-12.5973
-8.85188
-6.52308
1.19799
3.62267
12.8676
19.7241
29.2281
29.4737
20.185
12.9741
3.64302
1.0883
-6.70611
-9.0833
-12.8472
-13.8175
-14.8845
-14.9863
-14.2596
-13.2622
-10.7403
-8.22816
-3.13092
0.921044
7.40633
12.5916
16.4776
16.5171
12.7701
7.40706
0.884291
-3.26986
-8.4096
-10.9545
-13.4878
-14.4924
-15.22
-15.7878
-15.201
-14.824
-12.8967
-11.9402
-8.37114
-6.88287
-2.48016
-0.627576
2.13935
2.11777
-0.600937
-2.54305
-6.97705
-8.51709
-12.1176
-13.0918
-15.0284
-15.4107
-15.998
-15.9874
-15.6341
-15.2093
-14.0751
-13.0278
-11.0232
-9.33418
-7.07738
-5.38055
-4.13493
-4.1568
-5.39937
-7.15066
-9.4358
-11.1605
-13.1858
-14.2503
-15.3914
-15.8218
-16.176
-16.5054
-16.2237
-16.1462
-15.2888
-15.0257
-13.6054
-13.1176
-11.5486
-11.0416
-10.246
-10.2659
-11.0845
-11.6298
-13.2249
-13.737
-15.1743
-15.4498
-16.3134
-16.3954
-16.6782
-16.5668
-16.394
-16.282
-15.7739
-15.4598
-14.6565
-14.1228
-13.294
-12.7985
-12.4121
-12.4299
-12.8428
-13.3692
-14.222
-14.7779
-15.5964
-15.9225
-16.4372
-16.5536
-16.7283
-16.7456
-16.5919
-16.5874
-16.1498
-16.0655
-15.3978
-15.1962
-14.5251
-14.3264
-14.0325
-14.0494
-14.3726
-14.6003
-15.2942
-15.5161
-16.1982
-16.2939
-16.7379
-16.747
-16.9025
-15.3413
-15.1562
-15.0882
-14.5636
-14.3717
-13.5912
-13.2798
-12.5164
-12.252
-11.9273
-11.9492
-12.3163
-12.6199
-13.4156
-13.7568
-14.5568
-14.7646
-15.2977
-15.3712
-15.5581
-15.1789
-14.9741
-14.797
-14.2019
-13.7773
-12.8616
-12.2159
-11.2959
-10.7322
-10.3156
-10.3345
-10.793
-11.3949
-12.3504
-13.0281
-13.965
-14.4064
-15.0107
-15.1934
-15.4
-15.1595
-14.8466
-14.7037
-13.7598
-13.3862
-11.8503
-11.2511
-9.58303
-9.00402
-8.17253
-8.18455
-9.0667
-9.68257
-11.3895
-12.0243
-13.5814
-13.9741
-14.9266
-15.0754
-15.3899
-14.7049
-14.3222
-13.8301
-12.6141
-11.4507
-9.33579
-7.52173
-5.16388
-3.38137
-2.11279
-2.10303
-3.42601
-5.2349
-7.64607
-9.50327
-11.6477
-12.8357
-14.0622
-14.5619
-14.9467
-14.6079
-13.9955
-13.5557
-11.556
-10.4974
-6.82971
-5.22807
-0.704842
1.28017
4.15944
4.22107
1.23127
-0.749852
-5.34267
-6.99458
-10.7
-11.7895
-13.8005
-14.2491
-14.8633
-13.9401
-13.1946
-12.1395
-9.56657
-6.95015
-1.77807
2.4471
9.10009
14.5967
18.6555
18.8167
14.6385
9.18069
2.39776
-1.9006
-7.13645
-9.79944
-12.3913
-13.4589
-14.2079
-13.7536
-12.6784
-11.6725
-7.90228
-5.49929
2.25286
4.85997
14.5003
21.9537
32.9197
33.2018
21.9733
14.6159
4.81938
2.14616
-5.68108
-8.13839
-11.933
-12.9536
-14.0332
-13.1254
-11.8957
-10.1573
-5.70465
-1.15858
8.67516
14.2615
31.7711
46.0951
58.5066