/*--------------------------------*- C++ -*----------------------------------*\
| =========                 |                                                 |
| \\      /  F ield         | OpenFOAM: The Open Source CFD Toolbox           |
|  \\    /   O peration     | Version:  2412                                  |
|   \\  /    A nd           | Website:  www.openfoam.com                      |
|    \\/     M anipulation  |                                                 |
\*---------------------------------------------------------------------------*/
FoamFile
{
    version     2.0;
    format      ascii;
    arch        "LSB;label=32;scalar=64";
    class       volScalarField;
    location    "1500";
    object      initialResidual:p;
}
// * * * * * * * * * * * * * * * * * * * * * * * * * * * * * * * * * * * * * //

dimensions      [0 0 0 0 0 0 0];

internalField   nonuniform List<scalar> 
124215
(
-0.421945
-0.40767
-0.427093
-0.399685
-0.4357
-0.414053
-0.452278
-0.422293
-0.471727
-0.469113
-0.426595
-0.466206
-0.431043
-0.459617
-0.408219
-0.433616
-0.404218
-0.425458
-0.40554
-0.420326
-0.407143
-0.391745
-0.404232
-0.39038
-0.408548
-0.400554
-0.388434
-0.399933
-0.364679
-0.356461
-0.340812
-0.37448
-0.367108
-0.379679
-0.3778
-0.390572
-0.380467
-0.41068
-0.391497
-0.404235
-0.42557
-0.41046
-0.451353
-0.408589
-0.466261
-0.405226
-0.411056
-0.407097
-0.364245
-0.463631
-0.479486
-0.477167
-0.444349
-0.457164
-0.410116
-0.465286
-0.406839
-0.438288
-0.39653
-0.435138
-0.406805
-0.387613
-0.401903
-0.379919
-0.403363
-0.343426
-0.44265
-0.390644
-0.548172
-0.27087
-0.214957
-0.238472
-0.313348
-0.312027
-0.336445
-0.39256
-0.374114
-0.389537
-0.383639
-0.397849
-0.440429
-0.38946
-0.457647
-0.397012
-0.415561
-0.356538
-0.35916
-0.310313
-0.0737513
-0.385214
-0.921762
-0.522754
-0.563098
-0.436738
-0.394022
-0.474521
-0.391155
-0.441468
-0.418353
-0.432583
-0.410946
-0.396974
-0.40143
-0.34679
-0.396304
-0.424187
-0.486548
-1.01646
-1.84739
-0.0530652
0.574318
0.279831
-0.230781
-0.137863
-0.259716
-0.32171
-0.3635
-0.387162
-0.372982
-0.42197
-0.441411
-0.393051
-0.447608
-0.380676
-0.338431
-0.350479
-0.125025
-0.168067
2.46563
0.72247
-7.43348
-0.558914
-1.08617
-0.336565
-0.388707
-0.398217
-0.375819
-0.445259
-0.373126
-0.447253
-0.425058
-0.407416
-0.373921
-0.33517
-0.246897
-0.642322
0.073203
-3.66769
1.34364
8.88012
4.87834
4.40583
-1.85614
0.399628
-0.373073
-0.265011
-0.324139
-0.390827
-0.373903
-0.41467
-0.445616
-0.379581
-0.367146
-0.436744
-0.145964
-0.73657
1.46913
0.268963
5.84668
8.24712
16.7665
-1.10341
-0.365829
0.12326
-0.221898
-0.309198
-0.339686
-0.407299
-0.372613
-0.439761
-0.418463
-0.361861
-0.376364
-0.349989
-0.250529
-0.199906
-0.455187
0.575367
-0.234036
-3.70062
-0.670415
-7.52465
1.65825
-0.520703
0.101611
-0.347039
-0.269847
-0.411935
-0.380005
-0.425818
-0.412827
-0.333117
-0.393327
-0.319136
-0.338378
0.174313
-0.618515
2.07122
-4.5787
-6.12837
-2.30593
0.385312
0.816982
-0.14462
0.0478033
-0.296667
-0.295514
-0.373696
-0.359124
-0.425027
-0.439
-0.375592
-0.431235
-0.355681
-0.371177
-0.00787052
-0.483058
0.783444
-0.565272
2.44626
-0.550672
-1.52303
0.528378
-0.400442
-0.0696574
-0.388252
-0.267196
-0.42889
-0.378024
-0.436026
-0.424031
-0.369811
-0.395855
-0.360312
-0.392141
-0.146767
-0.246523
0.107557
0.0787279
-0.55532
0.313961
0.41401
0.136453
-0.253901
-0.131866
-0.322673
-0.310182
-0.416611
-0.39058
-0.417674
-0.462438
-0.388065
-0.410273
-0.327853
-0.473639
-0.277796
-0.42562
-0.128806
-0.214015
0.324358
-0.0180319
-0.215695
-0.200291
-0.411776
-0.223689
-0.438875
-0.377685
-0.451835
-0.392032
-0.445542
-0.406797
-0.408703
-0.41325
-0.31387
-0.35382
-0.243883
-0.240893
-0.186365
-0.160388
-0.154674
0.0152925
-0.158801
-0.147726
-0.232174
-0.280806
-0.376775
-0.320253
-0.395717
-0.399885
-0.415018
-0.437019
-0.409639
-0.457985
-0.373571
-0.442832
-0.356838
-0.39889
-0.283345
-0.359337
-0.214791
-0.256093
-0.3724
-0.276755
-0.423971
-0.375562
-0.425427
-0.366589
-0.454306
-0.410798
-0.439044
-0.407151
-0.391801
-0.42117
-0.368706
-0.376441
-0.342599
-0.380886
-0.303459
-0.288396
-0.285318
-0.309408
-0.292375
-0.309341
-0.392913
-0.332495
-0.375448
-0.383713
-0.404309
-0.397159
-0.408525
-0.440988
-0.397878
-0.444949
-0.427977
-0.453966
-0.40496
-0.462477
-0.434364
-0.432772
-0.38379
-0.383959
-0.423507
-0.43667
-0.455757
-0.410397
-0.460482
-0.40466
-0.445925
-0.408918
-0.433675
-0.412467
-0.412472
-0.397928
-0.390084
-0.421368
-0.382524
-0.383016
-0.388658
-0.385118
-0.380588
-0.368296
-0.395704
-0.39866
-0.389908
-0.396327
-0.401586
-0.395298
-0.410213
-0.400757
-0.416469
-0.422331
-0.413097
-0.443109
-0.398092
-0.435753
-0.421767
-0.437821
-0.408639
-0.444419
-0.42002
-0.430988
-0.448596
-0.410298
-0.451022
-0.413203
-0.441932
-0.409644
-0.434226
-0.416686
-0.428363
0.434071
0.428062
0.432856
0.427043
0.437332
0.427853
0.43224
0.416069
0.399405
0.382629
0.374614
0.399588
0.407552
0.43166
0.421449
0.430072
0.42421
0.433792
0.423187
0.432536
0.426203
0.420153
0.4268
0.420929
0.423857
0.417386
0.406956
0.397798
0.384293
0.371047
0.400042
0.386913
0.396408
0.409036
0.413363
0.42024
0.414431
0.424702
0.417739
0.424859
0.434431
0.427161
0.439343
0.426373
0.440193
0.418117
0.422676
0.415735
0.396464
0.352828
0.357581
0.388442
0.398345
0.419936
0.411079
0.431872
0.426467
0.432318
0.421348
0.430747
0.425095
0.417097
0.424057
0.415349
0.416128
0.408785
0.416971
0.412729
0.428561
0.405813
0.429545
0.428091
0.396916
0.41196
0.404646
0.41214
0.409989
0.41726
0.417189
0.420691
0.435143
0.42161
0.439994
0.420213
0.429534
0.42066
0.392014
0.398535
0.314957
0.0683407
0.135428
0.403556
0.393662
0.406386
0.420066
0.427501
0.407413
0.426574
0.424597
0.436722
0.428538
0.420937
0.419966
0.404602
0.422161
0.418806
0.437693
0.352241
0.187199
0.350137
0.112401
0.466479
0.466059
0.416509
0.403848
0.402455
0.402891
0.408853
0.408334
0.422229
0.431228
0.407736
0.414428
0.405148
0.424883
0.463634
0.396705
0.504958
2.51832
6.23885
2.64314
0.071267
0.249649
0.433737
0.44912
0.406446
0.40015
0.413259
0.400747
0.420558
0.40682
0.38161
0.383932
0.383188
0.414691
0.355333
0.302999
1.03837
-0.132633
-1.73608
-4.97921
3.74049
-0.475983
0.312247
0.474116
0.392371
0.389449
0.392386
0.386908
0.401913
0.390973
0.36018
0.378979
0.366397
0.385015
0.303037
0.623581
2.19262
8.37278
4.43573
-12.9604
9.51236
0.470693
0.106453
0.476948
0.343556
0.366261
0.378303
0.366785
0.3832
0.358464
0.321242
0.34371
0.330436
0.369816
0.315337
0.420386
0.415936
4.01075
-1.08922
-1.68098
3.18118
1.30389
0.148224
0.463957
0.310684
0.322831
0.3179
0.338636
0.358701
0.358756
0.330045
0.37001
0.31265
0.280261
0.290712
0.191042
0.940042
1.80989
-2.32311
0.983454
1.57793
0.858337
0.277174
0.328975
0.303031
0.318801
0.339414
0.321822
0.354757
0.38755
0.356041
0.377512
0.370351
0.370761
0.367535
0.370037
0.939814
1.30642
3.10105
1.74881
1.20792
0.790247
0.460504
0.384018
0.368597
0.347151
0.376704
0.368861
0.388922
0.411225
0.388181
0.397835
0.407696
0.441501
0.385146
0.419344
0.614244
0.952826
0.857771
0.731344
0.762995
0.623431
0.440503
0.387602
0.393296
0.375232
0.399891
0.389646
0.408868
0.429051
0.404698
0.412679
0.393647
0.439039
0.430747
0.381568
0.393438
0.379652
0.304437
0.367509
0.454479
0.441148
0.399438
0.401853
0.409692
0.403497
0.418122
0.408321
0.425728
0.426762
0.419097
0.420529
0.393981
0.402353
0.407378
0.425995
0.385934
0.397886
0.334041
0.319765
0.390222
0.378393
0.399077
0.40289
0.417612
0.399372
0.415975
0.415392
0.424024
0.438844
0.425637
0.435776
0.416327
0.427244
0.40406
0.411059
0.391626
0.366201
0.300223
0.300567
0.363365
0.384774
0.408021
0.41783
0.427012
0.411174
0.436155
0.425305
0.43922
0.430412
0.424532
0.426012
0.405102
0.417837
0.401823
0.399592
0.380109
0.353474
0.314441
0.323686
0.362305
0.368302
0.416118
0.407221
0.410939
0.416501
0.424626
0.42309
0.430185
0.436939
0.427431
0.443302
0.423519
0.431312
0.423889
0.422145
0.397715
0.380986
0.34038
0.369577
0.383793
0.410047
0.432067
0.42068
0.439824
0.425421
0.435521
0.429053
0.435724
0.434225
0.425154
0.428213
0.426576
0.427275
0.412177
0.406882
0.388907
0.360607
0.337736
0.332408
0.368805
0.395664
0.406731
0.421195
0.423732
0.420471
0.429304
0.423077
0.432805
0.437995
0.434591
0.436868
0.42595
0.438677
0.426122
0.42416
0.403716
0.387705
0.361914
0.362812
0.392839
0.41007
0.431458
0.428482
0.438131
0.430349
0.4361
0.432834
0.43973
-0.100088
-0.0989754
-0.101625
-0.0997277
-0.103203
-0.101151
-0.103045
-0.100027
-0.0998269
-0.0977519
-0.0953582
-0.0986367
-0.09859
-0.102237
-0.100001
-0.102521
-0.098516
-0.10079
-0.0980828
-0.099149
-0.0993668
-0.0982934
-0.100146
-0.0984532
-0.100717
-0.0995202
-0.100494
-0.097926
-0.101334
-0.100128
-0.101613
-0.0961918
-0.0985001
-0.0991395
-0.0981441
-0.100233
-0.0972534
-0.0987257
-0.0976253
-0.0982354
-0.101881
-0.0999207
-0.10389
-0.10156
-0.10718
-0.103711
-0.11038
-0.10679
-0.110084
-0.108549
-0.0975207
-0.105629
-0.102867
-0.109494
-0.102272
-0.105332
-0.0998378
-0.102759
-0.099235
-0.100272
-0.0997915
-0.0982638
-0.101356
-0.0989251
-0.101926
-0.102832
-0.107146
-0.106974
-0.101759
-0.134575
-0.10622
-0.101417
-0.101298
-0.101944
-0.100501
-0.100221
-0.0967996
-0.100604
-0.0971305
-0.0986748
-0.103313
-0.101121
-0.107344
-0.10159
-0.110875
-0.109452
-0.12162
-0.122595
-0.133843
-0.251647
-0.131657
-0.120096
-0.107756
-0.112963
-0.105725
-0.108971
-0.100712
-0.105048
-0.0985662
-0.101807
-0.0999374
-0.0978765
-0.100056
-0.0985929
-0.10541
-0.10746
-0.116408
-0.109975
-0.104756
-0.605862
-0.166353
-0.111811
-0.11334
-0.0999687
-0.104716
-0.100621
-0.0974546
-0.100586
-0.0960201
-0.0987306
-0.102317
-0.0962997
-0.103797
-0.10044
-0.117916
-0.109394
-0.15357
-0.295626
-0.592505
-1.65859
-0.527165
-0.182496
-0.167929
-0.13474
-0.0998487
-0.11098
-0.0982803
-0.104872
-0.0962071
-0.100401
-0.0965749
-0.0923288
-0.101453
-0.105855
-0.107964
-0.100561
-0.280005
-0.649939
-1.55011
-4.94786
-0.485139
-0.310959
-0.0601575
-0.14393
-0.104794
-0.099731
-0.0962255
-0.0987838
-0.0933662
-0.0947628
-0.0968098
-0.0899681
-0.103945
-0.0994951
-0.13921
-0.205123
-0.836017
-1.57837
-5.16631
-5.76687
-2.77783
-1.37597
-0.803378
-0.246016
-0.13072
-0.105173
-0.0892729
-0.097107
-0.089721
-0.0948934
-0.0878568
-0.0840728
-0.0950223
-0.085802
-0.103664
-0.0766554
-0.238034
-0.385358
-0.104936
0.727427
-0.840023
-0.938487
-0.455202
-0.128762
-0.120553
-0.096557
-0.0892341
-0.0870612
-0.0832349
-0.0894985
-0.0899705
-0.0845531
-0.0963946
-0.0783892
-0.0910972
-0.0959887
-0.150974
-0.499414
-1.25473
-1.62092
-1.37307
-0.675215
-0.194045
-0.117824
-0.0890943
-0.0893575
-0.078081
-0.0933266
-0.084495
-0.0889441
-0.0941674
-0.0879867
-0.101318
-0.0918033
-0.103768
-0.0951608
-0.153195
-0.187588
-0.557425
-1.3095
-0.598077
-0.318983
-0.172548
-0.150972
-0.0930675
-0.106724
-0.0862542
-0.0968467
-0.0892083
-0.0947697
-0.0981228
-0.0921822
-0.100728
-0.096417
-0.103293
-0.0877462
-0.114604
-0.121754
-0.140482
-0.216202
-0.118302
-0.154796
-0.128684
-0.115704
-0.087061
-0.102578
-0.0876936
-0.100467
-0.0923718
-0.0963221
-0.102416
-0.0968164
-0.105834
-0.0983057
-0.1154
-0.0965112
-0.110395
-0.113025
-0.142686
-0.158354
-0.128976
-0.146378
-0.115168
-0.119301
-0.0963795
-0.109244
-0.09773
-0.104774
-0.0964907
-0.102024
-0.10151
-0.0985868
-0.101697
-0.0960206
-0.102784
-0.0976916
-0.096734
-0.0922436
-0.0918664
-0.104045
-0.0896309
-0.0904669
-0.0874792
-0.0959817
-0.0928028
-0.100188
-0.0957687
-0.102192
-0.0975088
-0.100901
-0.103677
-0.101006
-0.107182
-0.101025
-0.107674
-0.103033
-0.108767
-0.102453
-0.107196
-0.0907759
-0.0895202
-0.106471
-0.100452
-0.108361
-0.10297
-0.108094
-0.0999745
-0.10531
-0.100423
-0.102997
-0.100782
-0.0991178
-0.102278
-0.0991694
-0.101154
-0.0973347
-0.0985805
-0.0885927
-0.0875267
-0.086711
-0.077556
-0.0864661
-0.0861934
-0.0986176
-0.0966559
-0.100866
-0.0975061
-0.101237
-0.0988377
-0.100445
-0.10292
-0.101182
-0.104576
-0.100634
-0.106899
-0.101231
-0.105964
-0.0993846
-0.098038
-0.0922885
-0.0948115
-0.0989162
-0.0996325
-0.106668
-0.100417
-0.105476
-0.101026
-0.104365
-0.100949
-0.102263
-0.100551
-0.0993387
-0.101018
-0.0992184
-0.100911
-0.098265
-0.0985015
-0.093422
-0.0906984
-0.0844907
-0.0869369
-0.0914619
-0.0939282
-0.0977975
-0.0984858
-0.100912
-0.0987017
-0.100844
-0.0990118
-0.0998119
-0.101898
-0.100305
-0.102331
-0.100666
-0.102952
-0.100218
-0.101269
-0.0962609
-0.095018
-0.0909404
-0.0907019
-0.0953994
-0.0969729
-0.101977
-0.10058
-0.102947
-0.100272
-0.102178
-0.0997955
-0.101335
0.0358308
0.0357135
0.0360382
0.0357318
0.0360061
0.0354802
0.0350981
0.033765
0.0321633
0.0304567
0.0305755
0.0323135
0.033937
0.0353153
0.0356801
0.0361844
0.0361398
0.0364509
0.035989
0.0362076
0.0355206
0.0354065
0.0357063
0.0358418
0.0359204
0.0357084
0.035263
0.0343554
0.0328198
0.0313935
0.0313654
0.0332184
0.0340375
0.0357156
0.0359821
0.0361516
0.0360701
0.0361484
0.0358264
0.0358504
0.0361639
0.0358926
0.0361164
0.0358099
0.0355471
0.0351854
0.0344814
0.0350284
0.029932
0.0293212
0.0278071
0.0331539
0.0346175
0.0353266
0.0358742
0.0358582
0.0363804
0.0363585
0.0361728
0.0363433
0.0359508
0.0360457
0.0363119
0.0365048
0.0367911
0.0373932
0.0390533
0.0395917
0.0368778
0.0353808
0.0343877
0.0386821
0.036125
0.0372206
0.0368
0.0370407
0.0366739
0.0361895
0.0363392
0.0358942
0.0361841
0.0361431
0.0359495
0.0366247
0.0361328
0.0397058
0.0374027
0.0484642
0.0341175
0.0219505
0.0269767
0.0440896
0.0423162
0.0374434
0.0393424
0.0364355
0.037025
0.0359176
0.0365232
0.0363264
0.0362778
0.0363743
0.0359895
0.0379371
0.0405662
0.0441344
0.0559836
0.0841262
0.0969942
0.0962181
0.0733516
0.0698884
0.0517825
0.0411661
0.0375503
0.0382941
0.0369118
0.0360132
0.0364355
0.0358036
0.0352041
0.0352187
0.0347286
0.0388419
0.0378292
0.052385
0.0600105
0.150613
0.270591
0.111363
0.233208
0.135576
0.0798026
0.047127
0.0449834
0.0375977
0.0380196
0.0354119
0.0358015
0.03515
0.0341916
0.0338638
0.0347315
0.0359881
0.0356808
0.0432579
0.0584214
0.263203
0.305083
-1.24596
-0.0472422
0.181258
0.0570375
0.0311561
0.0386968
0.0352932
0.0342009
0.0333542
0.0346755
0.0338167
0.0319655
0.0317775
0.0308244
0.0350302
0.0331003
0.0426844
0.0445012
0.17194
-0.82512
-4.6768
-1.10092
0.104045
0.102794
0.0274675
0.0504203
0.0339588
0.0350553
0.0310309
0.0325675
0.031975
0.03029
0.0303379
0.0297456
0.0320423
0.0344724
0.0452926
0.0576986
0.25673
0.562556
-0.747868
0.479645
0.273664
0.15987
0.043905
0.0475948
0.0301474
0.0312541
0.0288658
0.0301484
0.030393
0.0300829
0.0299608
0.0299773
0.0317519
0.0313654
0.0454159
0.0705378
0.123609
0.313615
0.00377373
0.190264
0.194185
0.0984382
0.0630862
0.0450156
0.0326625
0.0330719
0.0295063
0.0306396
0.030338
0.0325515
0.032918
0.0327208
0.0344578
0.03497
0.0425167
0.0572279
0.0958039
0.105171
0.0640358
0.131284
0.134388
0.0979757
0.0536376
0.0440527
0.033959
0.0341872
0.0313463
0.0328296
0.0327749
0.034029
0.0341454
0.0343663
0.0368648
0.038843
0.0425687
0.0569711
0.0733989
0.105153
0.0821122
0.0898718
0.0975296
0.0710046
0.0554365
0.0475504
0.0379809
0.0365789
0.0347446
0.0347794
0.0343964
0.0360758
0.0358959
0.0358569
0.0384617
0.0380402
0.0405207
0.0432053
0.0520994
0.0570083
0.0549234
0.0609456
0.0537678
0.0556019
0.0411931
0.0417621
0.0355399
0.0379464
0.0360085
0.0363339
0.0361765
0.0362227
0.0362587
0.0361346
0.0373026
0.038621
0.0396359
0.0430894
0.0417452
0.0466393
0.0380462
0.0410624
0.0465723
0.0465315
0.0421813
0.0421636
0.0386695
0.0374734
0.0367559
0.0364822
0.0364927
0.036782
0.0367288
0.0369271
0.0376653
0.036795
0.0390856
0.036621
0.0373528
0.0350509
0.0296831
0.0336327
0.0337454
0.0378402
0.0358083
0.0389648
0.0367202
0.0373293
0.0372578
0.0371419
0.0372826
0.0363621
0.0364296
0.0369702
0.0367601
0.0370325
0.0375475
0.0376194
0.0352774
0.0357738
0.0313294
0.0317394
0.0349304
0.0362407
0.0378236
0.0380047
0.0373247
0.0369043
0.036934
0.0369339
0.0367488
0.0366694
0.0363591
0.0369928
0.0368359
0.0366033
0.0369299
0.0360324
0.0340935
0.032052
0.0306202
0.0302581
0.0320767
0.0347903
0.0362652
0.0368492
0.0370569
0.0370218
0.0374125
0.037036
0.0371456
0.0365714
0.036375
0.0366702
0.036723
0.0370434
0.0367535
0.0363418
0.0349062
0.0332579
0.0306839
0.0314741
0.0335778
0.0352603
0.0365747
0.0370374
0.0372308
0.0371205
0.0372269
0.0367984
0.0369105
0.0367223
0.0366388
0.0370647
0.0366039
0.0369753
0.036515
0.035997
0.0344336
0.033027
0.0310626
0.0314368
0.0332008
0.0350334
0.0363912
0.0367805
0.0373842
0.0369465
0.0373308
0.0369377
0.0369238
-0.011443
-0.0113075
-0.0117622
-0.0113833
-0.0122597
-0.0119209
-0.0126746
-0.0123638
-0.0128632
-0.012284
-0.0122231
-0.0122242
-0.0118338
-0.0122803
-0.0113927
-0.0118437
-0.0109006
-0.0111584
-0.010761
-0.0110137
-0.0113762
-0.0111681
-0.0114162
-0.0109037
-0.0113286
-0.0108487
-0.0110555
-0.0112989
-0.011361
-0.0116674
-0.0115266
-0.0107202
-0.0107758
-0.0107315
-0.0104694
-0.0109572
-0.0104288
-0.0109141
-0.0106103
-0.0108923
-0.0116285
-0.0112547
-0.0122685
-0.0115042
-0.0131437
-0.0121978
-0.0139
-0.0125519
-0.0147655
-0.0144623
-0.0142543
-0.0135225
-0.012213
-0.0132474
-0.0118244
-0.0127494
-0.0110117
-0.0117934
-0.0107665
-0.011261
-0.011121
-0.0105484
-0.0111758
-0.0100675
-0.010607
-0.0101987
-0.00961847
-0.0104999
-0.0116083
-0.0132836
-0.0117882
-0.00937888
-0.0108498
-0.00916492
-0.0102439
-0.0105129
-0.00975765
-0.0109534
-0.0101823
-0.0108764
-0.0118754
-0.0109633
-0.0129361
-0.0108299
-0.0135396
-0.0103657
-0.0140294
-0.0122046
-0.0225582
-0.0248171
-0.021493
-0.0140875
-0.0115486
-0.012547
-0.0106867
-0.0129448
-0.0104876
-0.0125563
-0.0104662
-0.0115945
-0.0111032
-0.00999971
-0.01134
-0.00979568
-0.0105274
-0.0105066
-0.00830436
-0.00780239
-0.0139981
-0.0301804
-0.0117183
-0.00709646
-0.00964568
-0.00861349
-0.0123565
-0.0105792
-0.00990698
-0.0114517
-0.00970501
-0.0109772
-0.0120511
-0.0103937
-0.0134808
-0.009883
-0.0154891
-0.0104061
-0.0216852
-0.0300095
-0.101498
-0.159653
-0.0909907
-0.0286018
-0.01769
-0.0128414
-0.00991374
-0.0127717
-0.00934361
-0.0128159
-0.00990931
-0.0116206
-0.0109289
-0.00963175
-0.0123909
-0.0106837
-0.0152998
-0.0179609
-0.0341909
-0.0689394
-0.221721
-0.23723
-0.133065
-0.0853128
-0.0197132
-0.0221672
-0.0165196
-0.0132087
-0.0110205
-0.0117987
-0.00947348
-0.0108665
-0.0115169
-0.00977986
-0.0137859
-0.00961899
-0.0220986
-0.0202853
-0.0607372
-0.127736
-0.26966
-0.405195
-0.17362
-0.126954
-0.070144
-0.029719
-0.0141962
-0.0144238
-0.00880967
-0.0121141
-0.00915895
-0.0109587
-0.0101348
-0.00883976
-0.0119096
-0.00952865
-0.0169584
-0.0161645
-0.042758
-0.041354
-0.128713
-0.0277294
-0.131096
-0.101402
-0.0635732
-0.0366973
-0.0188032
-0.0154177
-0.0104708
-0.0119308
-0.00881474
-0.0103502
-0.0107636
-0.00920824
-0.0124323
-0.00827896
-0.0137297
-0.0140174
-0.0256601
-0.0651875
-0.0807595
-0.060105
-0.0880757
-0.0679203
-0.0541638
-0.0196517
-0.0111524
-0.0126909
-0.00662606
-0.0116495
-0.00845537
-0.0103737
-0.0109024
-0.00903472
-0.0126258
-0.00895865
-0.0141712
-0.0120461
-0.0294933
-0.0410132
-0.0888458
-0.0983501
-0.0820451
-0.0647226
-0.0322223
-0.0307767
-0.0118355
-0.0165779
-0.00924165
-0.0127184
-0.00895578
-0.0108922
-0.0115545
-0.0100085
-0.012515
-0.0094782
-0.0125872
-0.0105461
-0.0141259
-0.0339095
-0.0382338
-0.0554286
-0.0454306
-0.0324824
-0.0278907
-0.0145264
-0.00637826
-0.0129218
-0.00752766
-0.0114971
-0.00955162
-0.0110117
-0.0118303
-0.0100587
-0.0130962
-0.00947783
-0.0138648
-0.0113872
-0.0141604
-0.0172216
-0.0278662
-0.0298299
-0.0231564
-0.0308417
-0.0150474
-0.0180483
-0.0114101
-0.0151209
-0.0094098
-0.0127509
-0.00987376
-0.0113864
-0.0117452
-0.0107769
-0.0120674
-0.0100498
-0.0113593
-0.00990316
-0.00974248
-0.0117685
-0.00858086
-0.0170848
-0.0130519
-0.0100378
-0.00766946
-0.0108442
-0.00779922
-0.0111836
-0.00957518
-0.0112944
-0.0102669
-0.0111919
-0.0119713
-0.011093
-0.0128482
-0.0104439
-0.0135365
-0.0113241
-0.0137362
-0.0136815
-0.0152705
-0.0139464
-0.012457
-0.016757
-0.0131005
-0.0147917
-0.0110701
-0.0133824
-0.0103431
-0.0121245
-0.0105218
-0.0115069
-0.0114471
-0.0110609
-0.0115706
-0.0106059
-0.0111544
-0.0101499
-0.00994201
-0.00951397
-0.00883211
-0.00999453
-0.00861465
-0.00947491
-0.00815585
-0.0101136
-0.00970653
-0.0107685
-0.0102576
-0.0109858
-0.0105438
-0.0110778
-0.0119244
-0.011546
-0.0122817
-0.0113916
-0.0128741
-0.0116577
-0.0132469
-0.0122762
-0.0129185
-0.0123047
-0.0117239
-0.0129525
-0.0119745
-0.0130647
-0.0114205
-0.0123893
-0.0110174
-0.011673
-0.0109256
-0.0113716
-0.011405
-0.0112529
-0.0113905
-0.0109449
-0.0111945
-0.0107097
-0.0105725
-0.0100409
-0.00967041
-0.00943125
-0.00918472
-0.00975384
-0.00978523
-0.010343
-0.0103569
-0.0107163
-0.0104621
-0.0107665
-0.0105759
-0.0109188
-0.0115392
-0.0113859
-0.011707
-0.011334
-0.0118852
-0.0113415
-0.0119199
-0.0112262
-0.0113294
-0.01077
-0.0107611
-0.0112476
-0.0111718
-0.0116913
-0.0112175
-0.011575
-0.0109631
-0.0112574
-0.0109199
-0.0112667
0.00319261
0.00322748
0.00306369
0.00322097
0.00276972
0.00292708
0.00235028
0.00242858
0.00189861
0.00205114
0.00196947
0.00217065
0.00249235
0.00251571
0.00304305
0.0028685
0.00337097
0.00329345
0.00342301
0.00333986
0.00319242
0.0033275
0.00323872
0.00365552
0.00357087
0.0039473
0.00398729
0.0038347
0.00354728
0.00339761
0.00314592
0.00390911
0.00368658
0.00397583
0.00395871
0.00356468
0.00377969
0.00338253
0.00347931
0.00334802
0.00325854
0.00342553
0.00283122
0.00337373
0.00226966
0.00310559
0.00195991
0.00305148
0.00117772
0.00181704
0.000975246
0.00199146
0.0027468
0.00222346
0.00303956
0.00230547
0.00347741
0.0029279
0.00353431
0.00327218
0.0034959
0.00395019
0.00363564
0.00462281
0.00462727
0.0052736
0.00609218
0.00562438
0.00586396
0.00702427
0.0056035
0.00649254
0.00409433
0.00579969
0.00458373
0.00423137
0.00453914
0.00347705
0.00394653
0.00341477
0.0030863
0.00384043
0.00245742
0.00426991
0.00257701
0.00568477
0.00323226
0.00713718
0.00187556
0.00308436
-0.000489273
0.00586051
0.00536493
0.00413969
0.00490289
0.00264965
0.00419005
0.00238974
0.00388424
0.00303382
0.00356426
0.00449201
0.00360417
0.00525077
0.00536426
0.00605697
0.00940922
0.0119541
0.0109145
0.0162083
0.0113912
0.0106841
0.00671981
0.00729709
0.0030012
0.00459502
0.00463018
0.00320507
0.00443329
0.00332548
0.00276324
0.00414748
0.00209833
0.00529763
0.00230167
0.00914656
0.00554072
0.0106991
0.00155788
-0.00702058
-0.0113681
0.00728531
0.00489436
0.00828196
0.00706592
0.00357859
0.00524305
0.00220967
0.00433307
0.00273679
0.00321246
0.00450245
0.00289474
0.00445243
0.00376425
0.00577519
0.00565275
0.0115172
-0.0175601
-0.0550846
-0.0242334
-0.00532251
0.0050601
0.00267961
0.00244859
0.00339286
0.00344275
0.00249561
0.00430287
0.0029316
0.00242832
0.00391552
0.0014172
0.00582311
0.000943803
0.00969639
0.0063281
-0.00445242
-0.0489573
-0.133402
-0.0591375
-0.00960259
-0.00102581
0.00592427
0.00851458
0.00360634
0.00582011
0.00203107
0.00421517
0.00253695
0.00295546
0.00403579
0.00227971
0.00456772
0.00216296
0.00724585
0.00046302
0.0127383
0.000570237
-0.0706021
-0.00431247
0.00666759
0.0151084
-0.0030209
0.00489858
0.00121693
0.00344249
0.00147975
0.00381306
0.00257716
0.00239873
0.0037328
0.00167338
0.00531838
0.00334206
0.0057068
0.0115441
-0.00286211
0.0279083
0.000325456
0.0195225
0.0172919
-0.0035424
0.0109805
0.00745291
0.00386742
0.0067178
0.00179172
0.00411348
0.00257971
0.00288973
0.0045358
0.00195457
0.00504004
0.00330832
0.00582357
0.00184647
0.0117924
-0.000891906
0.00967774
0.00966173
0.00249927
0.0121305
-0.00135003
0.00563089
0.000613896
0.00474381
0.00127391
0.00424687
0.00271806
0.0027215
0.00405895
0.002447
0.005173
0.00437018
0.00637572
0.00930095
-6.35101e-05
0.012247
0.00070665
0.00265787
0.0101166
0.00319867
0.00807177
0.0103058
0.00356591
0.00636706
0.00280849
0.00422704
0.00301546
0.00306983
0.00448637
0.00218577
0.00541583
0.00250647
0.00449253
0.0042012
0.0048749
0.00150036
0.0031486
0.00816728
-0.00179134
0.00733097
0.00086613
0.00473268
0.000897333
0.00502557
0.00224893
0.00439584
0.00315782
0.0032063
0.0038838
0.00302788
0.00472674
0.004062
0.00544246
0.00668012
0.00516068
0.00941329
0.00248306
0.00492096
0.00762162
0.00892932
0.00540065
0.00743253
0.00422941
0.00499776
0.00342581
0.0040654
0.00338205
0.00320575
0.0038527
0.00264329
0.00450338
0.00222508
0.00416046
0.00230334
0.00275684
0.00198986
0.00256349
0.00423089
0.000295238
0.00311706
0.00118466
0.00428941
0.00210081
0.00434517
0.00296076
0.00407732
0.00337864
0.00340537
0.00365411
0.00338754
0.00404712
0.00377336
0.00449738
0.00459761
0.00458398
0.00540379
0.00352701
0.00479735
0.00462048
0.00577417
0.00447618
0.00479606
0.00397572
0.00412443
0.00366427
0.00385939
0.00352027
0.00319415
0.00332154
0.00292486
0.00345576
0.0023926
0.003294
0.00191633
0.00219933
0.00137782
0.00140225
0.00171311
0.00127314
0.00246387
0.00197518
0.00335202
0.00267332
0.00362972
0.00323796
0.00364653
0.00345027
0.00334156
0.00339393
0.00338005
0.00359487
0.0035469
0.00378993
0.00379589
0.00382748
0.00372998
0.00336448
0.00357938
0.00365653
0.00401528
0.00396028
0.00395332
0.00385113
0.00390023
0.00376767
0.0038123
0.00361092
0.0033088
0.00330985
0.00323652
0.00333101
0.00304051
0.00323407
0.00272644
0.00281236
0.00243372
0.00238828
0.00245256
0.00250525
0.00291786
0.00290537
0.00334372
0.00328556
0.00357743
0.00352368
0.00359611
0.00345365
-0.00132747
-0.0012888
-0.00149645
-0.00129687
-0.00178053
-0.00155513
-0.00208601
-0.0018715
-0.00221279
-0.0018808
-0.00202116
-0.00202132
-0.00191599
-0.00206821
-0.00160397
-0.00185703
-0.001366
-0.00150766
-0.00134743
-0.00137035
-0.001298
-0.00119211
-0.00130077
-0.000875525
-0.000960277
-0.000489652
-0.000368811
-0.000371577
-0.000448416
-0.000590396
-0.000858374
-0.000225592
-0.00060471
-0.000468443
-0.000635782
-0.00112493
-0.000955541
-0.00139003
-0.00128297
-0.00134647
-0.00133407
-0.00114349
-0.00179055
-0.00123226
-0.00240954
-0.00160692
-0.00286788
-0.00173581
-0.00331351
-0.00250407
-0.00318495
-0.00263957
-0.00205201
-0.00260863
-0.00175986
-0.00251622
-0.00131581
-0.0019005
-0.00126478
-0.00145612
-0.0011152
-0.000646076
-0.00104042
-3.99962e-05
-0.00022474
0.00022272
0.000617784
-0.000125516
0.000318156
0.00131225
0.000489362
0.00107916
-0.00121857
0.000742676
-0.000331156
-0.000587783
-0.000236988
-0.00132712
-0.000834162
-0.00129156
-0.00150692
-0.000798169
-0.00229894
-0.00058822
-0.00270355
-0.000224027
-0.00334402
-0.000660428
-0.00550972
-0.00490081
-0.00722192
-0.00127356
-0.00129619
-0.00173235
-0.000657649
-0.002545
-0.000703551
-0.00249508
-0.000889219
-0.00168664
-0.00109894
-8.55073e-05
-0.00116238
0.000225151
-0.00035775
-0.000802257
0.000146312
-0.000626231
-0.0021165
0.00223458
0.00148527
-0.000836812
-0.00229654
0.000495987
-0.00281909
-0.000684403
-0.000283784
-0.00163833
-0.000292066
-0.0013585
-0.00182168
-0.000265725
-0.0026934
0.000222572
-0.00346161
0.00107019
-0.00606934
-0.00787055
-0.0182044
-0.0233318
-0.0267478
-0.00701747
-0.00799948
0.000146877
0.000447093
-0.00175661
0.000310231
-0.00260591
-0.000249044
-0.00188105
-0.00118287
0.000220588
-0.00165271
-0.000336794
-0.00174486
-0.00213066
-0.00638057
-0.00760167
-0.0272165
-0.0035623
-0.00971274
-0.0161034
-0.00280267
-0.00509051
-0.00401968
-0.00176638
-0.00134045
-0.00214637
-0.000121972
-0.00154786
-0.00176677
-0.000101097
-0.00292444
0.00103643
-0.00473783
0.000692836
-0.00743155
-0.0244746
-0.0159477
0.000966003
-0.0170179
-0.0193963
-0.0187797
-0.00236112
0.000600562
-0.00145796
0.00114462
-0.00237925
3.59995e-05
-0.00174273
-0.0011443
0.000181539
-0.00194166
0.000116304
-0.00344144
-0.000293347
-0.0122821
-0.00586739
-0.0156434
-0.00938569
-0.024056
-0.0132395
-0.00357136
-0.0125125
-0.00276487
-0.00394661
-0.000976594
-0.00275756
-0.000233468
-0.00155999
-0.00163717
-0.000104838
-0.0024469
0.000942778
-0.00173999
-0.00235671
0.000454818
-0.0230795
-0.00370958
-0.00535281
-0.00376511
-0.00765411
-0.019378
0.00147449
5.52446e-05
-0.0013223
0.00235831
-0.00239732
0.000102081
-0.0015411
-0.00137603
0.000436985
-0.00255213
0.000475015
-0.0023823
-0.00171545
-0.0091628
-0.00146678
-0.0213969
-0.0109804
-0.0112909
-0.0154332
-0.00122593
-0.0110878
-0.00141319
-0.00503828
0.000125009
-0.0033146
-1.31012e-05
-0.00167454
-0.00166678
-0.000212745
-0.00217567
0.000511676
-0.00107894
8.22657e-05
0.00102015
-0.0106856
0.000628582
-0.00973651
-0.00910759
-0.00233843
-0.00798111
-8.92655e-05
0.00393239
-0.00193225
0.00158764
-0.00186433
-0.00023663
-0.00154127
-0.00152046
1.43044e-05
-0.00258744
0.000591498
-0.00302813
-0.00147798
-0.00295823
-0.00330034
-0.0083673
-0.00567771
-0.000911332
-0.0111126
-0.00100428
-0.00611853
-0.00127933
-0.00471897
0.000141844
-0.00274403
-0.000309721
-0.00160901
-0.00144601
-0.000691081
-0.00170973
-9.6099e-05
-0.00112723
7.60527e-05
0.000721851
-0.000894518
0.00288856
-0.00424114
-0.00200824
0.00108053
0.00261219
-0.000474796
0.00196418
-0.00108311
3.61898e-05
-0.00153081
-0.000729092
-0.00141656
-0.00145806
-0.000824854
-0.00216905
-0.000307373
-0.00291643
-0.000996666
-0.00310861
-0.00266746
-0.00346241
-0.00237694
-0.000847622
-0.00517135
-0.00244779
-0.00436498
-0.00101648
-0.00318073
-0.000651512
-0.00208673
-0.000849508
-0.00151325
-0.00123384
-0.00101725
-0.00136042
-0.000706658
-0.00106675
-0.000378507
-0.000187035
-5.54928e-05
0.000918523
-0.000664328
0.000495002
9.57315e-05
0.00102944
-0.000387209
-0.000149248
-0.00100979
-0.000784347
-0.00132433
-0.00104903
-0.00133089
-0.00150822
-0.00138709
-0.00188168
-0.00135212
-0.00247445
-0.00155316
-0.00292577
-0.00242395
-0.00310465
-0.00282937
-0.00255573
-0.00330475
-0.00226558
-0.00301805
-0.00160955
-0.00236709
-0.00137116
-0.00179432
-0.00132913
-0.00146743
-0.00137458
-0.00133309
-0.00141575
-0.00120255
-0.00128011
-0.000984668
-0.000861458
-0.000692185
-0.000556779
-0.00072599
-0.00050539
-0.000674426
-0.00056672
-0.000806256
-0.00092721
-0.00113302
-0.00108435
-0.0012659
-0.00118288
-0.00128841
-0.00145032
-0.00144502
-0.00158552
-0.00147579
-0.00179671
-0.00157412
-0.00202937
-0.00179606
-0.0020263
-0.00191783
-0.00188456
-0.00201907
-0.00176206
-0.00193881
-0.00155213
-0.00167328
-0.00135446
-0.00144749
-0.0013168
-0.00136626
0.000270695
0.000283285
0.00014172