/*--------------------------------*- C++ -*----------------------------------*\
| =========                 |                                                 |
| \\      /  F ield         | OpenFOAM: The Open Source CFD Toolbox           |
|  \\    /   O peration     | Version:  2412                                  |
|   \\  /    A nd           | Website:  www.openfoam.com                      |
|    \\/     M anipulation  |                                                 |
\*---------------------------------------------------------------------------*/
FoamFile
{
    version     2.0;
    format      ascii;
    arch        "LSB;label=32;scalar=64";
    class       volScalarField;
    location    "1500";
    object      initialResidual:Uy;
}
// * * * * * * * * * * * * * * * * * * * * * * * * * * * * * * * * * * * * * //

dimensions      [0 0 0 0 0 0 0];

internalField   nonuniform List<scalar> 
124215
(
6.73764
10.7246
9.08784
12.5622
15.805
18.7258
23.8125
25.9921
25.4566
21.2838
39.644
26.0222
27.97
14.9086
14.557
12.2225
14.0902
9.68079
9.12308
9.60949
30.5819
31.6496
40.5424
41.0381
52.173
59.6809
61.4295
81.3171
67.1617
84.8436
81.9164
75.4575
69.8208
59.0567
56.6334
53.2896
41.9878
35.5635
30.9536
30.3202
47.2782
51.7103
55.0656
66.4481
74.9434
87.6457
117.925
128.688
188.955
187.755
203.833
154.233
137.597
111.296
94.9819
77.8515
66.7503
53.5941
53.7508
43.6172
63.1728
66.8134
73.8594
90.6822
103.757
134.057
168.431
196.915
259.838
207.614
175.594
208.403
182.968
170.994
129.866
99.4592
87.0439
79.1894
67.5265
65.5108
74.0805
83.788
92.7221
107.051
128.078
165.824
200.676
254.814
282.494
385.595
369.74
306.67
250.593
210.816
160.97
132.095
110.667
88.1017
76.1091
72.705
76.9265
88.201
94.0719
122.365
148.12
192.926
258.215
360.027
445.954
360.65
309.926
355.738
296.817
241.872
196.866
137.016
127.225
95.6503
81.2841
78.3747
76.0132
82.1655
96.1669
123.524
148.741
189.913
249.449
355.972
323.993
695.488
484.855
460.224
329.449
250.77
211.747
159.652
115.927
97.6897
85.0189
75.1373
62.0406
69.9411
73.2734
118.295
162.378
174.994
262.158
442.665
1369.24
672.578
-1298.1
716.705
389.127
240.938
193.65
126.035
104.381
84.7823
67.8905
62.96
44.0655
46.8069
58.4965
63.9559
102.935
128.775
210.866
195.233
1930.98
1126
-2545.79
938.179
327.884
209.885
149.698
89.1059
90.0538
51.7646
51.5995
45.4776
8.6243
14.2184
9.64639
2.33408
35.1576
34.4853
92.287
-227.261
984.978
704.192
-624.347
113.135
44.042
113.025
45.3331
37.9663
30.0358
21.406
19.5079
12.2133
-16.7185
-20.9782
-30.169
-17.6222
-41.0217
-66.9475
-96.4654
-255.747
-226.473
-1477.62
-810.721
-514.072
-222.79
-76.439
-76.9883
-32.9818
-46.3073
-19.2227
-19.9716
-14.0541
-47.0558
-54.0437
-56.8964
-68.3507
-125.288
-152.679
-227.751
-362.699
-710.131
-758.836
-740.142
-583.769
-350.523
-216.077
-151.458
-87.9306
-76.8942
-58.3667
-57.5764
-45.6644
-68.7244
-72.3701
-87.1538
-126.693
-136.688
-166.504
-262.425
-379.779
-527.288
-714.496
-725.786
-579.213
-381.765
-269.175
-199.793
-140.81
-104.369
-81.9937
-68.9503
-65.8154
-78.3461
-87.6833
-98.1172
-122.167
-159.605
-212.567
-265.869
-343.24
-459.585
-526.081
-515.342
-441.582
-348.38
-259.949
-193.065
-163.183
-127.216
-99.2274
-85.8189
-80.5149
-81.466
-89.1155
-98.0475
-122.613
-145.477
-202.982
-252.351
-315.548
-363.948
-394.686
-418.952
-368.671
-313.3
-231.367
-178.474
-149.326
-133.709
-98.863
-87.7813
-81.247
-74.4971
-81.9139
-89.8562
-115.58
-134.694
-156.2
-202.611
-242.049
-301.938
-329.622
-271.519
-283.827
-237.645
-182.794
-164.703
-135.361
-104.99
-92.7998
-80.972
-74.4306
-66.2074
-69.495
-72.2909
-89.0423
-117.211
-130.852
-151.968
-173.149
-195.867
-244.297
-224.762
-211.868
-162.059
-149.547
-129.462
-104.946
-88.7502
-82.6178
-66.0793
-67.0879
-46.2823
-54.3714
-61.5333
-61.4691
-75.0398
-95.6172
-107.064
-134.347
-150.673
-133.03
-177.079
-147.397
-124.98
-119.184
-89.8349
-78.7407
-70.957
-56.083
-55.2851
-46.3995
-32.3264
-27.9863
-39.2632
-48.4179
-44.9591
-57.1167
-75.6966
-73.9978
-82.4299
-105.524
-90.191
-79.8933
-79.1415
-66.8308
-58.933
-53.3012
-37.6751
-39.6752
-30.1765
-30.7053
-10.0482
-14.9145
-2.77773
-14.5926
-14.9396
-13.1824
-20.5551
-21.9648
-25.7676
-19.2468
-25.6579
-21.2681
-30.9064
-14.8764
-17.5888
-12.1699
-12.794
-8.89505
-11.0478
-8.14577
-2.33025
-1.78304
-2.7095
-3.05404
-2.86946
-5.01223
-3.87191
-5.89825
-7.806
-7.36301
-10.7719
-8.27056
-5.63688
-5.73384
-4.97208
-3.98811
-2.33564
-2.40836
-2.43793
-1.38722
-6.66223
-7.58614
-8.10508
-7.75937
-12.139
-13.503
-18.2011
-21.8192
-26.5953
-22.8085
-23.476
-19.2859
-20.089
-13.6136
-13.3291
-11.5445
-9.81058
-6.33948
-7.19206
-6.49129
-10.2095
-10.7827
-9.76689
-15.7847
-13.6864
-21.539
-31.5389
-34.2869
-65.9938
-52.4774
-49.0674
-42.1301
-35.7527
-32.3363
-25.709
-16.3363
-11.6477
-12.4418
-12.6681
-9.39304
-13.7563
-14.7872
-15.5659
-19.5203
-25.3717
-33.4815
-40.7718
-54.1708
-64.3593
-68.3422
-43.774
-56.7545
-46.5304
-47.6704
-31.6747
-21.8291
-18.9628
-18.4893
-12.4681
-15.8404
-16.6645
-20.5602
-19.2598
-23.3408
-27.6642
-40.4169
-54.9973
-75.2621
-96.6935
-136.617
-116.646
-92.6615
-68.6374
-55.6966
-39.6749
-32.0947
-28.551
-18.6334
-14.2847
-13.1467
-15.3286
-19.2699
-19.9509
-30.0298
-31.9217
-52.1994
-80.9936
-130.283
-240.12
-328.291
-182.161
-120.163
-80.9986
-60.519
-55.2244
-31.7676
-32.2323
-21.8249
-15.903
-17.0348
-16.7439
-16.3346
-21.1754
-28.2378
-37.4932
-53.6221
-89.9613
-161.435
-298.317
-436.843
-290.75
-229.992
-90.4562
-69.0873
-53.2709
-44.4617
-28.5753
-20.7292
-19.6938
-16.9133
-11.8757
-16.3789
-18.4294
-37.4685
-42.1839
-48.2517
-102.797
-205.334
-337.189
81.2455
41.6603
-349.692
-121.171
-63.1676
-48.6664
-30.8747
-23.387
-21.6839
-13.4067
-11.8217
-9.41816
-9.93734
-10.0035
-15.1264
-21.7861
-26.7717
-33.9461
-34.3352
-13.8859
-216.742
-281.004
-105.371
-91.2957
-35.8553
-34.2246
-17.8665
-14.7973
-10.8544
-9.35426
-9.23846
-1.22698
-1.27105
-3.4183
-0.598545
0.376913
4.22583
46.7016
108.514
145.357
25.9172
-159.077
211.805
-1.94774
-8.8388
-4.42275
-4.51187
-4.01754
-1.10295
-2.52591
-2.44448
5.16076
6.71266
6.07072
7.5631
18.1431
25.847
55.3485
101.762
148.81
-41.2195
96.0065
158.485
70.4966
29.155
25.4372
12.2078
11.9049
7.88076
5.96614
3.92507
11.7927
12.4289
17.5421
22.3895
29.4672
41.7745
65.8194
121.173
164.608
154.975
163.089
142.926
95.7239
55.6567
40.0314
23.3971
18.677
12.0625
12.2569
10.9611
16.1213
16.0421
20.9077
27.003
25.7923
38.788
72.5584
114.046
152.05
223.354
189.324
138.656
101.991
67.1311
47.866
36.1835
24.7762
20.716
13.7189
14.7162
17.9705
22.78
23.194
31.8197
44.4529
52.2844
64.2192
90.2547
119.246
139.297
129.094
112.199
86.7178
63.6873
44.1472
38.8524
30.6852
22.33
20.0484
20.0227
18.5596
19.139
21.444
29.6134
36.2544
55.9397
56.2903
73.8766
85.4153
99.6173
102.864
87.8252
71.108
51.2752
37.107
27.4044
32.2411
23.3047
19.3014
18.3881
15.4432
18.7725
20.0186
27.6692
27.9901
36.9042
55.5062
60.1458
77.0632
75.6758
60.3391
65.8036
57.1355
44.0263
37.3865
29.2444
23.4946
18.7018
18.3217
15.02
14.6626
12.7356
14.0995
24.2075
27.2582
29.9969
39.2348
37.6814
45.8162
74.8102
37.0717
42.7493
38.9524
25.1638
25.1061
24.4054
15.0609
19.7932
11.7593
14.8644
11.3368
13.3917
10.6565
13.4733
20.3666
19.4622
20.9028
36.2844
35.0777
26.9803
38.2884
38.4261
25.1917
25.1665
19.7987
13.5225
17.473
12.3865
11.9379
11.2583
5.67472
7.20809
9.18324
7.88599
8.93853
12.6627
16.7169
18.448
21.5801
21.5097
23.8118
17.8762
19.2122
15.0122
10.5199
12.7127
7.14508
8.37572
7.75661
5.87697
1.79186
1.66792
3.35555
2.67039
3.64313
3.87435
3.60712
6.96687
4.55451
8.90089
4.50111
5.58085
4.62048
4.56327
4.04727
2.60165
2.91872
2.77583
1.74885
2.11654
0.360777
0.50631
0.355306
0.55422
0.444235
0.427169
0.415801
0.479145
0.647698
0.384128
1.28213
0.599512
0.856067
0.270291
0.678443
0.384092
0.602122
0.483852
0.433784
0.503145
1.78617
1.63328
2.0223
2.02563
1.89072
2.01109
2.18031
1.79428
2.56453
1.76366
1.23402
1.44466
2.2185
2.67893
2.09232
2.33619
1.82755
2.14753
1.89719
1.82931
2.61364
2.71717
2.92939
2.75316
3.33065
2.58119
3.13902
3.17271
1.3686
3.63183
1.50667
3.82133
2.99105
2.95695
2.84092
2.75713
3.57008
2.87693
2.73907
2.61794
3.64065
3.61323
4.12927
3.59807
3.7655
4.22388
3.42502
2.2192
-1.06691
2.07267
0.198461
2.80838
4.02731
2.16728
4.64795
4.63017
3.82903
4.27816
4.31064
3.66647
4.20318
4.15821
4.28377
4.25944
4.67249
4.52074
2.57101
0.759235
-2.15988
2.57837
2.83045
2.97894
3.27262
1.69047
5.23366
5.30212
4.66338
4.87015
4.84389
4.88712
4.92121
4.71841
4.65184
4.84064
5.01916
4.49439
4.45841
3.15012
-0.465447
-10.9945
-5.07616
0.565899
4.64443
5.28431
8.27957
5.98826
4.95696
5.24951
5.37929
4.50087
4.74124
4.82126
5.64544
6.75147
5.11346
4.97592
6.03257
5.71358
-4.39285
-32.9273
6.45232
-1.77335
2.96337
7.24423
6.10745
6.54737
6.77431
5.80133
5.32466
5.06609
4.54763
4.34927
5.46146
8.23362
5.29409
6.79387
11.9244
1.06986
-43.1022
-107.395
-46.3047
1.98674
10.0042
9.84305
8.36945
6.46337
6.28288
4.78164
5.24635
4.60876
3.64816
3.84217
4.27637
5.28577
6.49129
6.28348
9.33092
7.89721
-27.8345
-79.5412
67.7901
33.5306
16.7329
10.6725
8.13719
6.0692
4.268
4.60009
3.91886
3.7482
1.6287
2.05255
2.07783
3.32602
3.65119
5.40343
6.14687
28.1084
87.0423
132.752
76.607
33.2732
16.4438
9.39353
5.90765
3.88771
3.07978
2.10249
1.65122
1.60392
-0.23718
-0.128253
0.0760271
1.0827
1.64526
3.2853
4.77528
10.9117
61.0282
109.149
3.39978
0.462358
4.22457
2.01136
0.725649
1.08035
0.610054
-0.0980156
-0.647628
-0.396704
-2.19878
-2.15686
-2.75374
-2.32805
-1.7735
-1.46419
-4.57395
-8.69652
-19.1391
-22.6508
-30.2581
-18.2037
-7.99035
-5.91247
-3.50045
-2.76129
-2.30853
-2.22933
-2.37341
-2.38761
-3.32207
-3.33491
-3.25548
-3.86524
-1.85977
-5.10069
-7.35781
-8.81649
-17.746
-28.7866
-28.8237
-17.7501
-10.3232
-8.0547
-5.29998
-5.20153
-4.30527
-4.26983
-4.11711
-3.62506
-4.19181
-4.14323
-5.14146
-5.6637
-5.49487
-5.97168
-6.84636
-9.02638
-13.2459
-16.5617
-16.2899
-14.1095
-10.9093
-8.52793
-6.876
-4.74373
-5.83447
-4.93381
-4.43578
-4.31906
-4.3478
-4.24115
-4.58441
-4.99329
-6.97712
-5.89396
-7.99293
-9.28993
-11.8631
-14.439
-15.2045
-12.3124
-10.0502
-9.12907
-7.21915
-5.59747
-4.15384
-5.15337
-4.30385
-4.55049
-4.24457
-4.09123
-4.46424
-5.49994
-4.8257
-6.13954
-6.35795
-10.0711
-10.7415
-8.33929
-11.4772
-11.7963
-10.6121
-5.17638
-6.71671
-5.39927
-4.92032
-4.50164
-4.27475
-4.3836
-3.65311
-4.10086
-4.64774
-3.96175
-4.79213
-5.69284
-7.31521
-6.90563
-10.3444
-9.57907
-6.03218
-9.03344
-7.24498
-6.87539
-6.60604
-5.57787
-4.97181
-3.95043
-4.12876
-3.8049
-2.37469
-2.64577
-3.31758
-2.9467
-3.36334
-4.31254
-5.14913
-4.16895
-6.69207
-7.22352
-6.61864
-4.98569
-4.72754
-4.89413
-3.73632
-4.11592
-3.19616
-2.93651
-2.96549
-2.52802
-1.94172
-1.70859
-2.0318
-2.36671
-2.74373
-2.51157
-3.74807
-3.13508
-4.52264
-3.5552
-4.81951
-4.46437
-3.06432
-2.97397
-3.10367
-2.63073
-2.38532
-2.209
-1.7278
-1.90733
-0.532657
-0.498799
-0.367575
-0.737783
-0.473647
-0.720138
-0.859465
-0.77476
-1.09873
-0.678782
-1.17606
-0.880934
-1.08205
-0.64538
-0.711203
-0.693069
-0.676071
-0.409412
-0.546635
-0.466724
-0.187413
-0.20242
-0.297621
-0.331492
-0.541865
-0.638954
-0.883989
-0.96933
-1.28061
-1.21301
-1.39749
-1.16824
-0.95343
-0.824473
-0.533722
-0.48928
-0.297835
-0.246332
-0.179698
-0.156182
-0.309436
-0.435519
-0.475663
-0.848107
-1.08668
-1.61536
-1.95134
-2.81104
-2.8086
-3.22648
-2.90679
-2.78093
-2.315
-1.65004
-1.39929
-0.818223
-0.719182
-0.387411
-0.311181
-0.234574
-0.629806
-0.763674
-1.03848
-1.46893
-2.05936
-2.8969
-3.80918
-4.729
-5.23502
-6.09632
-6.46926
-5.40052
-4.45292
-3.36356
-2.45258
-1.84788
-1.18059
-0.853624
-0.604488
-0.538745
-0.703664
-0.932455
-1.22483
-1.98566
-2.64576
-4.24183
-5.15465
-6.96208
-7.92516
-7.58516
-8.19722
-7.18876
-5.91378
-4.0108
-3.20474
-2.04468
-1.66979
-0.953643
-0.690747
-0.523579
-0.812832
-1.02642
-1.55906
-2.28137
-3.48371
-5.14458
-7.08268
-9.30823
-10.3594
-9.6777
-11.2634
-10.3591
-8.45644
-5.72445
-4.32008
-2.53888
-1.84268
-1.18323
-0.840494
-0.60312
-0.728575
-1.00226
-1.37362
-2.4514
-3.62604
-5.59149
-7.01719
-10.1456
-11.047
-4.12209
-10.9493
-11.0449
-9.21494
-5.61933
-4.59129
-2.80974
-1.90836
-1.26242
-0.809913
-0.643648
-0.477694
-0.728776
-1.03289
-1.71623
-2.82703
-4.33149
-4.95057
-5.45802
2.58936
24.498
-0.828572
-9.93899
-8.29355
-5.87957
-4.28884
-2.23803
-1.55714
-0.895406
-0.552786
-0.312816
-0.181212
-0.308973
-0.846308
-0.834144
-1.71709
-2.44421
-1.0559
2.0842
24.9973
35.8183
20.2974
0.695558
-4.82716
-2.84341
-3.33216
-1.86244
-1.04383
-0.55587
-0.305438
-0.137185
0.408096
0.306855
0.239106
0.0198192
-0.221446
-1.01357
-0.506345
-1.91956
-4.35424
-13.674
-20.5522
-7.0926
-2.3249
-0.844993
-1.56791
-0.509133
-0.195119
0.21794
0.19422
0.369861
0.721986
0.775478
0.838003
1.02646
1.20384
1.47348
1.72399
-1.59889
-16.6506
-47.0256
-44.1388
2.12541
4.11309
1.80287
1.62114
0.64285
0.89546
0.634458
0.683114
0.578274
1.27097
1.40295
1.89519
2.31699
3.64061
4.82624
6.43343
9.92876
4.28062
-30.6321
-14.3652
10.0411
9.96418
5.61284
4.52749
3.17616
1.90143
1.52917
1.19063
1.05768
1.39759
1.67059
1.99711
2.97237
4.04032
6.16261
7.00376
9.5583
5.78242
-2.49976
2.41719
7.62819
9.14451
6.01027
5.48476
3.55568
2.58566
1.70204
1.37649
1.17606
1.65744
1.91178
2.36729
3.27516
4.65966
6.9087
7.47097
10.4266
8.49698
5.15788
6.91359
10.4516
10.3918
7.1758
6.15798
4.55529
2.89944
2.19914
1.6302
1.40724
1.57612
1.78693
2.37506
2.85486
3.9014
5.80275
7.03781
9.05198
10.0466
10.6917
10.6111
10.1751
8.25007
6.68415
5.18446
3.48032
2.69483
1.94976
1.59576
1.32739
1.50922
1.77337
1.99933
2.75653
3.28073
4.61394
5.40829
7.454
8.02854
9.25501
8.96554
8.31961
7.14705
5.31278
5.12155
3.27841
2.74831
1.77708
1.6105
1.31111
1.31123
1.49063
1.824
2.21949
2.91418
3.98065
4.70103
6.57186
6.4167
6.67235
7.73126
6.60325
6.26747
4.45613
3.62107
2.824
2.16098
1.67063
1.32901
1.16224
0.974427
1.13037
1.32272
1.7183
1.99133
2.95658
2.94099
4.08916
4.35046
4.04582
5.09152
4.79879
3.9997
3.03241
2.81022
1.94282
1.60737
1.10033
1.04188
0.845422
0.827328
0.857278
0.999831
1.34844
1.57636
2.02936
2.45396
2.82843
3.08244
3.60328
3.08421
3.148
2.72616
2.25474
1.99059
1.46433
1.15873
0.940199
0.749303
0.726279
0.379271
0.483999
0.45551
0.681648
0.72036
1.16843
1.10054
1.61046
1.52008
1.8421
1.78961
1.59168
1.49029
1.13522
1.0777
0.668963
0.643363
0.392008
0.42654
0.342178
0.188013
0.221183
0.281837
0.266508
0.438658
0.421376
0.643485
0.651041
0.737367
0.768196
0.739095
0.746842
0.636951
0.583622
0.447463
0.413258
0.25914
0.269074
0.198248
0.184049
-0.0552777
-0.0541017
-0.124569
-0.115567
-0.259391
-0.237656
-0.424571
-0.38168
-0.484674
-0.444024
-0.434652
-0.456568
-0.348951
-0.38491
-0.199651
-0.227648
-0.0928773
-0.102898
-0.0357327
-0.0412945
0.140109
0.0701571
0.0894367
-0.117946
-0.09838
-0.423297
-0.392216
-0.709433
-0.699235
-0.767195
-0.856761
-0.648034
-0.668954
-0.302896
-0.324129
-0.00851021
-0.0430224
0.143437
0.124786
0.184705
0.0716773
0.0135761
-0.113137
-0.275898
-0.551211
-0.802228
-1.17989
-1.44538
-1.34742
-1.36638
-1.44172
-1.45232
-1.29173
-1.0099
-0.644694
-0.424672
-0.167835
-0.0156778
0.0983947
0.136903
0.248823
0.128333
0.0850667
-0.271411
-0.307462
-0.905969
-0.895645
-1.3679
-1.12183
-1.28453
-1.78983
-1.33587
-1.4696
-0.754354
-0.749852
-0.189671
-0.149482
0.199965
0.227661
0.340913
0.307401
0.224594
0.0885577
-0.191734
-0.456542
-0.951779
-1.24189
-1.33027
-0.90437
-0.207247
-1.06146
-1.41992
-1.74427
-1.16656
-0.866719
-0.333263
-0.0639918
0.192778
0.301597
0.387171
0.45248
0.351128
0.303048
-0.0289671
0.0167507
-0.490663
0.451623
0.41596
2.12671
2.54183
0.274945
0.28716
-0.850262
0.122716
-0.730126
0.0388621
0.0420184
0.370305
0.421985
0.513941
0.665498
0.593135
0.586494
0.322501
0.566693
0.402801
1.41454
2.6527
5.66261
9.76753
5.67037
1.85301
0.252702
0.311489
-0.164368
0.367916
0.295607
0.585669
0.632529
0.698315
0.717519
0.729929
0.662098
0.637659
0.742976
0.835365
2.71424
2.6317
7.516
13.208
3.7445
4.41497
1.10037
1.94974
0.426817
0.523583
0.664615
0.638755
0.706407
0.707375
0.952103
0.941318
1.05632
1.03619
1.30924
0.906662
2.27844
0.756324
-4.76345
-9.02356
-4.50245
-0.531614
1.90534
2.14389
0.837622
1.1215
1.00017
0.98729
0.886904
0.891999
0.791873
0.886183
0.882757
1.2188
1.05341
1.4266
2.1007
2.33414
-0.111856
-29.4138
-19.2527
3.8633
4.55386
2.54134
1.85504
1.03009
1.12111
0.786171
0.794595
0.704114
0.892305
0.932155
1.23798
1.39582
1.90363
2.0656
2.12346
3.39342
3.68522
-14.8496
-14.1303
3.52771
4.43334
2.27803
2.27624
1.81023
1.21727
1.1011
0.810413
0.783605
0.617148
0.738482
0.850074
1.12976
1.32929
1.99066
0.397724
0.637798
-3.43163
-5.66126
-4.26478
-1.25156
1.18924
0.510106
1.8949
1.16268
0.933561
0.674565
0.58543
0.477879
0.600155
0.666247
0.867621
1.08782
1.50933
1.91445
0.526761
0.882412
-2.02098
-5.22205
-5.0615
-0.502684
1.58953
1.00955
2.04529
1.38489
0.928667
0.785263
0.542633
0.4724
0.388377
0.4849
0.593294
0.894037
0.915911
1.31757
0.918125
0.484267
-0.53509
-0.500709
-0.345058
0.221779
0.464756
1.04865
1.15775
0.776011
0.687493
0.408699
0.329945
0.248727
0.29225
0.409796
0.428695
0.747927
0.741828
1.23436
0.331824
0.840682
0.0308382
0.115122
-0.0268259
0.503385
0.9233
0.512205
1.17157
0.612217
0.599265
0.303714
0.299168
0.182715
0.217926
0.286913
0.358507
0.551962
0.668996
0.885244
0.99128
0.749375
0.697196
0.653315
0.570253
0.926067
0.639016
0.970451
0.817332
0.563206
0.450202
0.253088
0.188881
0.124167
0.070451
0.160678
0.127204
0.346847
0.248285
0.610381
0.315475
0.602712
0.391236
0.596425
0.23833
0.41953
0.555996
0.278192
0.575304
0.166476
0.294756
0.0347331
0.0938592
-0.00420526
0.118271
0.138001
0.197323
0.285443
0.377278
0.453362
0.596788
0.549812
0.613314
0.595118
0.58526
0.625693
0.513365
0.52717
0.421782
0.343257
0.217328
0.152683
0.0853518
0.0652002
-0.0424134
0.00707012
-0.0612185
0.0781786
-0.0413269
0.150632
-0.0122187
0.160874
0.0389498
0.121718
0.118947
0.0622794
0.166449
-0.0383745
0.137413
-0.0685835
0.0556973
-0.0910016
-0.0248251
-0.0702646
0.0805711
0.0742731
0.126223
0.0940965
0.204422
0.13963
0.272633
0.184248
0.277389
0.229853
0.228174
0.273267
0.189042
0.263624
0.133187
0.195503
0.0851963
0.11903
0.0645699
0.0731641
-0.0848535
-0.0819812
-0.146303
-0.132937
-0.259745
-0.22509
-0.383066
-0.323845
-0.428926
-0.403875
-0.417918
-0.430947
-0.329212
-0.373336
-0.21508
-0.248494
-0.122852
-0.137203
-0.0734405
-0.0776683
0.0387632
-0.0216448
0.0111021
-0.162467
-0.100827
-0.364854
-0.274356
-0.530848
-0.46706
-0.57324
-0.603264
-0.457491
-0.544285
-0.252084
-0.337426
-0.0710788
-0.130436
0.0376071
0.00267018
0.0612806
-0.0836833
-0.130538
-0.218722
-0.340446
-0.524864
-0.69042
-0.930056
-1.01157
-1.1636
-1.18323
-1.28394
-1.19371
-1.09234
-0.924198
-0.667656
-0.492503
-0.303752
-0.181442
-0.096322
-0.0523145
0.0407285
-0.0620707
-0.0539378
-0.348742
-0.304295
-0.756049
-0.559753
-0.969543
-0.803082
-1.00851
-1.26158
-0.919373
-1.15409
-0.592556
-0.774825
-0.279446
-0.308701
-0.0152283
-0.0275657
0.0754352
0.0560599
-0.0156124
-0.0890094
-0.294555
-0.435562
-0.727671
-0.886152
-0.909732
-0.653725
-0.514878
-1.11779
-1.16772
-1.45986
-1.12809
-0.864422
-0.480898
-0.286851
-0.0774627
0.00521041
0.0779617
0.168687
0.0795442
0.0849962
-0.182297
-0.0361794
-0.479939
0.416225
0.162069
0.98862
0.752176
-0.625243
0.156984
-0.749201
0.114108
-0.706443
-0.113245
-0.214566
0.0814896
0.0817602
0.176477
0.35614
0.29811
0.314494
0.164205
0.339771
0.0995282
0.775823
1.45715
2.39925
3.39538
1.04891
0.10062
-0.241154
-0.061525
-0.43165
0.0794445
0.0327773
0.2572
0.261509
0.33426
0.411046
0.419134
0.369569
0.396305
0.291579
0.254469
1.68572
1.15301
3.86395
0.727181
-0.979003
2.10574
-0.143319
1.23154
-0.114774
0.158553
0.318786
0.308539
0.369182
0.373129
0.687824
0.672422
0.791681
0.744883
0.930439
0.514992
1.79286
0.884583
-1.71977
-4.66375
-5.7176
-2.03484
0.869181
1.45612
0.285457
0.732157
0.607148
0.685076
0.5873
0.619595
0.652464
0.73294
0.692734
0.938466
0.81437
1.25254
2.18787
2.12231
3.34239
-16.9037
-17.5588
3.99902
3.65442
2.00413
1.45493
0.713684
0.878696
0.606047
0.645862
0.574314
0.902215
0.923498
1.14622
1.24438
1.72139
1.86123
1.97202
2.90562
1.85783
-15.4675
-12.9228
3.83586
4.24434
2.13437
2.13846
1.72807
1.20372
1.08237
0.841195
0.817908
0.76244
0.85487
0.903701
1.17599
1.2284
1.86442
0.388316
0.8595
-2.91054
-4.55179
-2.13059
-0.0184478
1.65921
0.647644
1.95759
1.20699
1.07555
0.812739
0.764677
0.668885
0.839983
0.889622
1.06917
1.18307
1.53843
2.01487
0.632285
1.33458
-0.842568
-3.35015
-3.07664
0.465789
2.09464
1.20076
2.18153
1.64061
1.17556
1.01296
0.822322
0.760247
0.682563
0.771709
0.805926
1.04932
1.03879
1.37205
0.9156
0.623743
0.0658049
0.445287
0.663223
0.838574
0.790449
1.22
1.3414
1.0232
0.987733
0.741118
0.694985
0.601668
0.609807
0.702206
0.7013
0.971812
0.841513
1.33467
0.41793
0.910629
0.296691
0.594413
0.507804
0.817187
1.15538
0.710137
1.37978
0.878485
0.950015
0.655681
0.64132
0.544624
0.517709
0.581816
0.628757
0.795531
0.887314
1.05613
1.1551
1.08568
0.865873
1.06669
0.922501
1.0905
1.07646
1.25355
1.04705
0.865094
0.763667
0.580343
0.529961
0.462863
0.341308
0.425438
0.365538
0.589713
0.446161
0.76637
0.435614
0.771668
0.500626
0.764098
0.714863
0.626161
0.81608
0.510833
0.781501
0.430152
0.569785
0.332486
0.384485
0.298217
0.321937
0.350226
0.39915
0.465219
0.561426
0.620654
0.737052
0.698875
0.743793
0.764269
0.742648
0.807926
0.715033
0.76337
0.618259
0.550021
0.449945
0.37254
0.321186
0.291368
0.0909951
0.137963
0.0742683
0.2071
0.081561
0.26527
0.0883415
0.26993
0.143943
0.250035
0.239688
0.165933
0.279183
0.0963428
0.267943
0.0704391
0.19578
0.0594758
0.120448
0.0733078
0.123805
0.115252
0.168895
0.139617
0.244607
0.185591
0.315455
0.235215
0.315936
0.276677
0.273691
0.320214
0.235975
0.315756
0.185785
0.242343
0.135867
0.164771
0.110097
0.118629
-0.0700535
-0.0627923
-0.120268
-0.0949147
-0.20697
-0.153945
-0.293102
-0.217778
-0.311193
-0.275363
-0.28649
-0.315348
-0.228734
-0.297972
-0.157303
-0.208309
-0.0950178
-0.119782
-0.0621378
-0.0693126
0.0865396
0.0371237
0.0958451
-0.0419496
0.0710876
-0.136868
0.022313
-0.189709
-0.0884413
-0.193672
-0.237785
-0.102067
-0.23282
0.00311527
-0.15071
0.0632837
-0.0433098
0.0966915
0.0389448
0.0891629
-0.0106659
-0.0391368
-0.0861733
-0.150903
-0.253529
-0.318974
-0.46044
-0.476471
-0.575306
-0.602857
-0.690575
-0.611659
-0.588205
-0.518815
-0.365733
-0.279709
-0.162219
-0.0913974
-0.0408196
-0.0105459
0.135203
0.0565447
0.123826
-0.095019
0.0648167
-0.270497
0.0621151
-0.268929
-0.129457
-0.395285
-0.593367
-0.194333
-0.483759
-0.0313352
-0.359822
0.0152528
-0.123056
0.106418
0.0465112
0.128621
0.156201
0.111568
0.103112
-0.0096364
-0.0283598
-0.185768
-0.245789
-0.251941
-0.190785
-0.230912
-0.560755
-0.425922
-0.705774
-0.470086
-0.381177
-0.138658
-0.0753729
0.0618755
0.085257
0.135529
0.261473
0.199106
0.267631
0.0864918
0.349799
-0.0106512
0.934781
0.456332
0.698716
-0.336757
-0.909826
0.558806
-0.11346
0.72045
-0.242439
0.22037
-0.00415351
0.208765
0.158186
0.226565
0.420708
0.387177
0.461737
0.36073
0.609495
0.377194
0.867187
0.937235
0.407897
0.238756
-0.390257
-0.212127
0.0750887
0.352192
-0.0570268
0.366912
0.203786
0.360842
0.317223
0.364046
0.438193
0.459749
0.442806
0.538744
0.471312
0.365449
1.62616
0.318757
1.52379
-2.004
-2.90887
1.40376
-0.160761
1.44712
0.0999232
0.329825
0.418077
0.358721
0.390802
0.376605
0.67043
0.660928
0.789301
0.767428
1.01298
0.63733
2.003
1.33631
-1.12571
-3.8341
-3.99643
-1.26598
1.12781
1.56865
0.403824
0.78741
0.616843
0.681234
0.571396
0.594441
0.588401
0.66431
0.613137
0.87069
0.762404
1.32163
2.58823
3.46773
6.72627
-13.2323
-13.9786
5.1241
3.62928
1.97953
1.3603
0.611376
0.786268
0.539396
0.587626
0.518125
0.800406
0.802927
1.00155
1.03888
1.47813
1.63521
1.83719
3.1435
3.42248
-12.5364
-10.5531
4.17587
3.89032
1.81578
1.82878
1.49066
1.01101
0.960314
0.744729
0.739556
0.632066
0.697858
0.68363
0.861872
0.801025
1.3621
-0.212029
0.324607
-3.04812
-4.14413
-1.42732
-0.0198066
1.17351
0.122473
1.51296
0.850876
0.841547
0.643917
0.64921
0.574944
0.701061
0.720977
0.827179
0.856531
1.06326
1.39469
-0.0588931
0.649962
-1.30477
-3.73085
-3.42651
-0.261283
1.37596
0.519314
1.65641
1.23378
0.905823
0.827833
0.699004
0.664816
0.543089
0.601079
0.571062
0.708289
0.545721
0.729731
0.146247
-0.262913
-0.76756
-0.348203
-0.000280543
0.0132833
0.0218375
0.536904
0.8197
0.626879
0.728723
0.556614
0.575166
0.509142
0.484758
0.552042
0.487571
0.668321
0.418436
0.758179
-0.29277
0.131493
-0.575698
-0.327236
-0.360247
-0.0661767
0.424388
0.0706065
0.933379
0.527203
0.721425
0.491911
0.539476
0.462955
0.411783
0.454891
0.450041
0.546108
0.524918
0.587171
0.555164
0.376822
0.132322
0.261112
0.225551
0.397986
0.445315
0.72038
0.657802
0.57499
0.567772
0.449124
0.442961
0.394572
0.260687
0.327321
0.229984
0.405315
0.178027
0.41846
-0.00910106
0.244072
-0.0800091
0.121955
0.120183
0.0745068
0.332342
0.105742
0.488608
0.211567
0.424018
0.229869
0.318254
0.247769
0.267068
0.28451
0.30669
0.338012
0.384509
0.382294
0.440764
0.362018
0.367911
0.375491
0.359697
0.445328
0.402432
0.499551
0.420105
0.403983
0.348768
0.306538
0.278018
0.258029
0.0572913
0.0982827
0.0199639
0.13205
-0.0254099
0.130369
-0.0834071
0.0703094
-0.0837579
0.0103664
0.0108066
-0.0499342
0.0949455
-0.0574522
0.152227
-0.015433
0.136753
0.0194519
0.0941111
0.0516422
0.114595
0.103379
0.153941
0.117548
0.214721
0.145846
0.266279
0.176358
0.252296
0.21081
0.209695
0.261053
0.182366
0.273884
0.151815
0.217985
0.118916
0.153859
0.10213
0.112842
-0.065103
-0.0559717
-0.109583
-0.0794529
-0.185674
-0.127144
-0.262307
-0.183733
-0.277116
-0.241739
-0.251135
-0.281267
-0.197552
-0.271824
-0.136356
-0.193256
-0.0855503
-0.114423
-0.0602532
-0.0688066
0.100448
0.0564958
0.128591
0.00620339
0.142604
-0.0464765
0.133415
-0.0711871
0.0318059
-0.0763168
-0.111
0.0220497
-0.116913
0.10221
-0.0763193
0.117815
-0.0122232
0.114119
0.0441983
0.089783
0.00849211
-0.0122186
-0.0397547
-0.0814935
-0.151372
-0.18957
-0.306309
-0.317571
-0.428214
-0.471172
-0.550084
-0.453277
-0.423843
-0.374671
-0.255445
-0.20193
-0.118271
-0.068327
-0.0357531
-0.0120337
0.155589
0.0859115
0.178908
-0.0134241
0.188405
-0.121309
0.230537
-0.130543
-0.0194698
-0.312612
-0.469291
-0.0339232
-0.302471
0.139462
-0.225119
0.111766
-0.0701964
0.133932
0.049309
0.123352
0.169325
0.13303
0.149897
0.0630858
0.0798952
-0.066177
-0.146817
-0.224356
-0.278531
-0.390788
-0.641318
-0.395363
-0.571815
-0.326955
-0.256254
-0.0474109
-0.0284325
0.0806563
0.0789605
0.121689
0.261632
0.205009
0.29588
0.128985
0.410132
0.0206739
0.909343
0.246278
0.29
-0.862477
-1.28123
0.374183
-0.123618
0.789906
-0.182918
0.280074
0.0215725
0.211997
0.137386
0.200921
0.40017
0.368574
0.458986
0.361086
0.600165
0.318787
0.671803
0.515344
-0.348804
-0.731726
-1.13399
-0.648409
-0.0718379
0.297659
-0.0510427
0.374322
0.194633
0.341017
0.279918
0.323129
0.397081
0.420088
0.409345
0.496215
0.431451
0.274286
1.48969
0.0656094
1.14106
-2.78767
-3.22261
1.06518
-0.345048
1.33571
0.0201901
0.283359
0.367625
0.311678
0.335924
0.321267
0.610901
0.599541
0.728152
0.693193
0.94663
0.578923
1.93375
1.38143
-0.84007
-3.54402
-3.56438
-1.09647
1.11184
1.45853
0.3213
0.710446
0.53605
0.614855
0.504394
0.529316
0.517663
0.589614
0.534296
0.780469
0.688804
1.29718
2.65405
3.70536
7.6658
-11.5915
-12.5538
5.27958
3.32243
1.82729
1.21377
0.490081
0.680424
0.454409
0.514569
0.450212
0.725511
0.719957
0.911268
0.933571
1.38017
1.58101
1.85886
3.3345
3.773
-11.4773
-8.96324
4.33874
3.731
1.71762
1.69015
1.36744
0.903685
0.877124
0.675069
0.678185
0.555636
0.612092
0.576727
0.738306
0.636617
1.22987
-0.312613
0.314743
-2.86694
-3.77238
-0.524096
0.486142
1.23723
0.0610271
1.39444
0.711293
0.74132
0.560544
0.587561
0.52189
0.630846
0.641037
0.721228
0.728201
0.903993
1.23888
-0.159697
0.660778
-1.12934
-3.46988
-2.97309
-0.236083
1.35565
0.383521
1.50545
1.0881
0.81006
0.753118
0.649149
0.622818
0.478974
0.527511
0.467565
0.578081
0.371551
0.52818
-0.0446008
-0.41052
-0.789627
-0.331369
0.169277
0.0101169
-0.0499893
0.382771
0.673102
0.492269
0.638218
0.49029
0.535422
0.477068
0.432281
0.491092
0.398148
0.554818
0.257832
0.579647
-0.496843
-0.0508555
-0.710283
-0.443309
-0.415106
-0.227472
0.274391
-0.107913
0.788091
0.404351
0.644459
0.438362
0.511352
0.441657
0.370469
0.405561
0.377084
0.446187
0.386724
0.418904
0.36533
0.166912
-0.0462015
0.0910902
0.0967111
0.226618
0.281131
0.56591
0.532058
0.472597
0.505354
0.408997
0.423327
0.38136
0.231581
0.2912
0.173658
0.330241
0.0677328
0.287484
-0.168809
0.0794839
-0.246218
-0.0350647
-0.0279127
-0.0843296
0.194061
-0.0273223
0.38737
0.133184
0.377092
0.200695
0.306436
0.241626
0.248567
0.260656
0.269546
0.286932
0.310195
0.291262
0.33218
0.243742
0.25193
0.261066
0.258195
0.338441
0.304567
0.410637
0.351687
0.352626
0.317897
0.288781
0.271971
0.256322
0.0467881
0.084583
-0.0018976
0.101285
-0.0704022
0.0762879
-0.151865
-0.00393046
-0.162036
-0.0663567
-0.0619618
-0.121237
0.0322458
-0.112564
0.110378
-0.0471352
0.118302
0.00882551
0.0908702
0.0508502
0.11155
0.0995066
0.147957
0.109138
0.203315
0.132032
0.250874
0.159856
0.236515
0.195774
0.195816
0.247739
0.169542
0.262817
0.142469
0.210865
0.114475
0.151463
0.101483
0.112785
-0.0594801
-0.0491722
-0.100374
-0.0675542
-0.17101
-0.110413
-0.245465
-0.166763
-0.260612
-0.224125
-0.232848
-0.263981
-0.179923
-0.256069
-0.121874
-0.1815
-0.0768676
-0.10834
-0.056461
-0.0661606
0.116635
0.0760542
0.156992
0.04306
0.193678
0.0131311
0.203558
-0.00103748
0.104295
-0.00806893
-0.0387366
0.0970809
-0.04441
0.16974
-0.0226958
0.161245
0.0157076
0.133706
0.0550996
0.0974367
0.0306782
0.0144611
-0.00125267
-0.0312977
-0.0837703
-0.109442
-0.216807
-0.228585
-0.344415
-0.394335
-0.460996
-0.361394
-0.323396
-0.283354
-0.180307
-0.14365
-0.0803609
-0.0426179
-0.0220503
-0.00264324
0.180539
0.115523
0.224648
0.0447369
0.268853
-0.0341094
0.325084
-0.0569028
0.049439
-0.258739
-0.388071
0.058277
-0.199758
0.245646
-0.137633
0.183915
-0.0258797
0.164681
0.0631129
0.132636
0.189172
0.156355
0.188468
0.112636
0.145267
-0.00170138
-0.0993935
-0.21511