/*--------------------------------*- C++ -*----------------------------------*\
| =========                 |                                                 |
| \\      /  F ield         | OpenFOAM: The Open Source CFD Toolbox           |
|  \\    /   O peration     | Version:  2412                                  |
|   \\  /    A nd           | Website:  www.openfoam.com                      |
|    \\/     M anipulation  |                                                 |
\*---------------------------------------------------------------------------*/
FoamFile
{
    version     2.0;
    format      ascii;
    arch        "LSB;label=32;scalar=64";
    class       volScalarField;
    location    "1500";
    object      initialResidual:Ux;
}
// * * * * * * * * * * * * * * * * * * * * * * * * * * * * * * * * * * * * * //

dimensions      [0 0 0 0 0 0 0];

internalField   nonuniform List<scalar> 
124215
(
7.97522
29.1018
45.2544
64.6423
71.1688
78.3279
71.3818
60.7823
40.5478
7.75848
-16.131
-44.5048
-62.7911
-75.917
-79.0012
-72.8742
-61.1204
-48.4732
-28.7821
-9.39266
7.44531
31.487
53.6315
64.7735
81.6952
86.5577
83.2246
76.4438
50.4248
17.4507
-26.305
-56.9963
-74.9411
-83.8095
-86.0795
-82.9806
-67.6175
-48.2961
-33.4743
-12.0372
14.0717
38.3869
53.4568
76.0486
85.0538
93.5262
98.8753
91.8689
68.1642
-6.78267
-18.0986
-55.6105
-85.1509
-98.52
-100.138
-87.8581
-74.4764
-58.7477
-36.5353
-2.55777
10.6766
40.5853
65.0152
88.9528
106.839
118.099
124.708
96.2531
82.1613
22.0576
-40.3703
-75.0873
-115.723
-133.58
-120.919
-103.315
-89.4597
-68.2136
-41.1454
-14.2363
8.737
52.4112
83.2138
103.435
130.135
147.805
153.723
133.549
67.3555
8.0049
-8.76514
-71.0174
-138.891
-155.346
-137.205
-132.397
-107.729
-71.9337
-44.5785
-22.8713
20.6137
60.3425
89.5584
132.758
163.277
192.867
216.153
200.364
126.518
-25.6703
-127.321
-179.67
-215.176
-205.443
-198.261
-154.006
-139.741
-89.4204
-51.4542
-12.9494
22.8162
68.145
107.707
147.56
199.966
253.546
293.087
311.232
375.493
285.308
-83.1775
-199.093
-273.781
-252.067
-258.078
-207.912
-152.745
-112.189
-68.0425
-10.5764
22.423
72.6839
105.223
220.701
278.035
318.498
351.177
386.506
-499.338
-1909.13
-1385.58
69.8081
-389.714
-320.094
-298.489
-245.174
-192.077
-134.059
-67.2565
-27.2974
18.9484
93.1013
137.421
247.693
274.13
419.928
377.03
967.351
573.983
516.522
-394.062
-559.742
-532.692
-498.195
-342.304
-278.286
-200.191
-152.045
-90.931
-21.0409
18.9161
78.622
167.185
250.113
295.541
443.48
508.905
759.971
1189.79
2060.86
853.141
-1428.09
-602.272
-652.904
-374.368
-340.403
-221.508
-125.885
-97.7984
-21.2973
27.9419
102.087
179.9
201.713
289.312
414.474
543.224
734.581
860.71
559.492
-988.192
-862.731
-709.422
-541.103
-403.88
-299.184
-250.014
-168.47
-84.7714
-26.7068
20.862
81.1738
139.588
229.43
262.512
348.938
456.259
517.705
565.494
193.035
-224.038
-492.556
-576.428
-433.263
-364.425
-293.379
-210.022
-137.475
-93.7148
-21.656
27.0025
74.8405
126.864
202.505
222.737
242.821
328.327
376.877
313.013
110.951
-164.184
-318.934
-370.566
-340.973
-307.188
-243.168
-178.463
-124.081
-67.2102
-36.3569
10.4206
64.0013
108.275
161.276
229.13
246.955
236.836
240.515
204.961
79.3106
-77.9756
-211.657
-254.225
-252.756
-229.6
-189.276
-161.629
-106.718
-71.9425
-17.8859
18.0291
59.3033
84.9925
128.568
157.7
201.898
204.557
194.035
138.336
44.8905
-54.0067
-141.536
-193.12
-187.648
-179.059
-160.944
-140.688
-88.0744
-55.9462
-16.9675
16.0411
48.6191
74.7332
110.162
131.389
140.598
162.579
137.416
85.1862
27.9197
-21.838
-85.9936
-137.362
-153.569
-150.31
-136.778
-101.612
-77.4926
-48.6021
-16.4005
11.7337
42.8544
58.7135
87.1064
115.451
119.683
115.308
97.4711
81.2294
17.8524
-38.8504
-64.6816
-98.6803
-117.194
-115.741
-104.407
-87.0567
-68.8424
-38.228
-12.6125
3.34386
39.3855
60.6668
70.935
88.7118
95.8815
91.6791
89.494
53.6213
18.0126
-14.2525
-64.5372
-83.4404
-100.11
-96.3453
-87.7357
-81.8982
-54.8364
-39.0733
-8.64694
14.4769
27.1759
52.721
69.8331
74.3703
85.7692
86.7841
71.2545
51.5184
18.0944
-19.1143
-51.9491
-73.7373
-84.3105
-84.1839
-83.5012
-62.7651
-54.1064
-29.5662
-10.7918
9.64683
32.1997
42.7639
65.3731
74.9429
78.0651
75.4306
62.7953
43.5968
14.266
-15.0145
-46.1344
-61.3144
-75.4057
-79.0404
-71.7579
-65.5677
-45.2808
-30.092
-7.8965
-2.2494
-6.10522
-11.1324
-14.7782
-14.6461
-18.8737
-14.813
-13.4371
-8.53907
-1.89422
4.06964
10.911
14.6458
17.4879
19.1937
17.7912
12.332
10.9463
7.10171
1.66061
-2.39358
-7.51994
-11.8878
-12.5846
-19.8956
-19.8839
-20.8394
-18.6691
-14.1822
-4.01322
7.24211
14.2619
19.4128
18.5647
20.3962
19.8815
16.7477
9.53625
7.3795
1.85783
-2.02503
-7.71817
-10.2775
-17.8972
-16.1901
-21.9214
-26.0143
-20.3931
-21.6294
-1.60914
5.84846
15.4394
22.7395
26.5567
26.3913
19.1737
13.8283
12.5327
9.25376
3.13469
-3.60652
-9.04491
-14.0479
-19.9527
-26.0639
-29.4129
-30.2798
-26.6574
-22.6075
-7.90068
12.5657
24.5223
32.5002
38.4961
29.4896
23.8548
19.7944
17.2321
7.71424
2.67647
-3.69314
-12.8323
-17.4271
-23.6554
-29.1737
-37.0322
-42.1411
-43.5704
-26.4337
2.93793
15.7533
27.3364
42.0253
41.4845
34.8121
33.223
29.3137
17.2613
9.13846
2.41714
-3.57652
-14.366
-20.6078
-34.6369
-37.4041
-53.454
-64.6233
-71.0811
-71.5484
-2.41705
59.7247
63.6821
70.2994
57.2144
60.0977
39.7168
37.6735
23.4023
10.9182
4.76491
-5.45592
-15.1069
-27.1296
-41.4019
-58.5604
-80.3888
-113.8
-196.027
-248.144
-31.0676
259.194
141.643
99.2526
71.9836
68.0641
62.3224
39.3976
27.2441
16.5463
5.28331
-5.33416
-21.2986
-32.5445
-78.8134
-81.1855
-107.495
-170.659
-282.208
-194.171
-116.397
158.151
278.028
242.163
93.7938
84.222
63.6158
45.6727
37.7187
17.0814
4.0229
-6.05139
-21.924
-37.3426
-67.107
-81.3106
-154.188
-252.525
-495.888
-209.752
322.762
-365.683
302.886
377.12
145.783
98.7978
69.9726
43.8534
30.8854
18.9788
6.39648
-5.89239
-21.8936
-51.8765
-61.4608
-83.3607
-129.886
-185.982
-318.661
-175.793
209.761
-124.001
231.405
238.72
172.994
102.576
80.961
69.5913
25.8922
19.3833
8.87485
-5.40478
-23.4636
-29.5955
-39.8735
-91.8985
-111.779
-166.7
-207.911
-93.7044
0.556485
14.8742
162.787
198.682
143.669
103.564
69.873
60.4328
44.3237
24.1445
4.90586
-6.6706
-19.4523
-37.737
-61.1957
-66.5911
-91.5447
-127.486
-141.325
-148.014
-28.5763
108.482
120.939
136.443
114.038
88.0745
68.8305
52.7745
29.0901
20.2333
6.5148
-5.61648
-15.3605
-30.5454
-42.5737
-35.1693
-47.2063
-87.6363
-96.0843
-75.4797
-22.0889
39.7603
75.057
93.9215
83.9658
68.6512
59.4314
41.76
31.3002
13.0703
4.04184
-4.8759
-16.2202
-24.7584
-39.619
-57.364
-50.3607
-55.7282
-57.8181
-46.8213
-18.1296
20.2946
48.6363
61.1579
60.468
49.6534
46.1568
37.2141
23.9293
14.4304
4.70518
-5.27412
-12.2386
-18.5182
-30.9552
-39.3307
-53.5494
-44.9582
-43.922
-31.6894
-9.91619
14.3361
33.876
43.3345
40.9562
35.8927
29.9237
33.6595
21.0712
11.938
5.31739
-2.53834
-10.7595
-15.9245
-25.5226
-26.394
-31.144
-41.722
-32.2576
-20.3483
-9.04119
5.07595
21.172
32.8348
34.9451
32.1986
28.5907
22.1612
15.1928
10.6301
2.44332
-2.74092
-6.76893
-11.6322
-23.1829
-26.6135
-26.0076
-28.7737
-21.274
-14.675
-6.78779
3.86391
14.3862
22.3253
19.8238
23.0608
24.2797
14.3477
16.8554
6.83531
2.82801
-3.25468
-8.56849
-10.1
-13.942
-22.0581
-19.1607
-15.7467
-21.8271
-14.2451
-3.36972
5.93827
14.7329
15.9363
21.3829
19.6301
15.2898
19.0872
11.8624
8.08645
2.66691
-1.4881
-6.7798
-12.6838
-12.0923
-13.8276
-18.3741
-19.8106
-15.041
-11.1574
-3.54335
3.72525
10.3044
16.929
18.0609
14.9197
20.7556
11.0124
11.4103
7.46322
1.64086
-1.61991
-5.15908
-9.89083
-15.7128
-15.2201
-16.5333
-16.088
-13.2926
-8.2974
-3.15491
3.08763
9.63341
11.2035
16.5421
16.845
13.9763
14.1211
10.7429
5.58223
2.00817
0.302551
1.62161
2.07935
3.11353
3.6613
3.40505
4.0375
3.14251
2.37056
0.650336
-0.474341
-2.05638
-3.03335
-3.39489
-3.81797
-3.25454
-3.28772
-2.32521
-1.50257
-0.388477
0.416612
1.42107
2.38379
3.29066
3.12909
3.76119
3.71366
2.88511
3.08156
1.27765
-0.813976
-2.1623
-3.4393
-4.07544
-3.83994
-3.76394
-2.80516
-2.52221
-1.59697
-0.435781
0.35561
1.70988
2.55639
3.1064
4.06128
3.35357
3.70363
3.33744
2.24232
0.850378
0.171775
-2.19903
-2.62413
-3.41083
-3.2702
-3.20887
-3.81364
-2.4113
-1.7352
-0.283795
0.366367
1.60186
2.68717
2.93412
3.31462
3.73245
2.96302
1.89305
1.85011
1.56075
-0.453565
-1.55973
-3.01292
-1.68174
-3.87915
-3.81689
-3.0805
-2.72972
-2.03414
-0.616561
0.418011
1.69307
2.27778
3.10649
3.60269
3.70353
2.27353
0.664374
1.67096
0.0476166
1.05977
0.976467
-0.65235
-0.322317
-3.99366
-3.91162
-3.43817
-2.79791
-2.12121
-0.47398
0.607524
1.74291
2.28718
3.38017
2.74056
1.81784
-0.160804
-3.19622
1.56073
3.05851
-1.30606
1.95142
0.245978
-0.886212
-6.08059
-3.96229
-3.4245
-3.13607
-2.3064
-0.385889
0.230669
2.16153
3.2649
6.08227
1.98806
2.2669
0.0396212
-3.44807
-5.8673
18.6972
6.4039
4.64821
3.12771
-1.00813
-3.72919
-4.00058
-5.57455
-3.81301
-2.54954
-0.529101
0.788189
2.01884
4.00143
8.19565
0.266947
3.07924
1.83936
-14.7464
-29.932
-0.720519
40.3686
-3.77801
5.58879
1.68655
-4.94462
-4.1391
-4.74424
-3.17371
-3.03727
-0.855333
0.618645
2.92535
3.81547
5.31484
4.4474
8.30884
-6.03981
-65.5753
-120.584
-101.494
180.984
75.3772
7.66046
-4.8567
-7.48908
-6.42519
-4.21182
-4.73083
-2.76854
-0.801152
0.46431
3.86866
3.56892
5.55031
5.35728
6.98643
4.2839
-20.505
-79.5508
-43.2314
109.26
8.38736
-14.3338
-12.6685
-9.06103
-8.5594
-11.0236
-6.64776
-3.12067
-0.681526
0.811358
3.04046
5.32085
2.44137
10.1096
11.2217
16.0882
28.2725
17.544
7.73806
-4.54407
-31.0704
-29.1359
-15.5458
-12.9885
-7.644
-4.59419
-4.75827
-3.8741
-1.05323
0.748911
3.67089
6.19252
6.93531
8.06692
11.9028
13.9614
21.0887
25.5053
15.1119
-18.8519
-22.8982
-20.3415
-14.0997
-11.8301
-9.12697
-6.39766
-4.29878
-3.33052
-1.02047
0.556885
2.93936
4.77364
6.4114
3.31973
10.584
11.5418
13.465
14.2543
6.879
-5.77754
-12.6758
-13.3073
-12.0114
-10.2935
-10.0468
-6.86972
-5.87268
-3.84893
-1.07606
0.814945
2.83421
5.30293
7.78062
6.77868
8.04496
8.56156
10.6776
10.7017
5.09603
-4.29567
-10.2732
-10.4602
-9.86918
-9.68774
-5.2922
-7.51386
-4.8097
-3.17146
-0.825264
0.700771
2.53092
3.89313
5.67849
8.17353
7.1025
7.57678
7.75326
6.42386
2.54418
-2.47961
-5.91097
-7.2399
-8.14906
-8.00384
-6.23419
-4.42187
-4.30153
-2.45446
-0.656028
0.666595
2.51067
3.69892
5.94075
5.69591
7.04139
6.98846
7.22573
4.92323
1.97431
-1.53876
-5.62468
-6.99645
-6.04268
-7.24518
-5.90171
-5.25035
-3.62275
-2.54851
-0.683924
0.683938
2.51266
3.97875
4.31397
5.4053
6.23303
6.89252
5.47955
4.48272
2.2154
-0.593078
-4.62401
-5.62804
-6.58394
-7.00668
-5.98574
-5.3145
-3.32989
-2.46753
-0.697319
0.377182
2.17945
3.52278
4.11091
4.95933
5.69058
6.03815
4.04218
4.10593
1.23938
-1.08043
-3.05331
-4.42243
-5.82624
-5.12039
-5.65243
-4.30572
-3.12899
-2.31166
-0.437478
0.534057
1.84297
2.85583
4.50312
5.08378
4.83989
5.64148
4.21268
3.6299
1.07617
-1.23143
-3.51261
-4.14352
-4.69919
-5.72877
-4.69533
-4.43226
-3.15064
-1.83282
-0.575739
0.569136
2.07396
2.6645
3.8049
4.5953
4.94308
4.94727
4.18996
3.32276
0.990832
-1.02433
-3.10633
-4.50488
-4.84315
-4.9447
-4.77785
-4.08005
-2.705
-2.00962
-0.49617
-0.264485
-0.539167
-1.04189
-1.24877
-1.57776
-1.71351
-1.53764
-1.33482
-0.686842
-0.139473
0.667418
1.13215
1.63448
1.80555
1.71808
1.63643
1.27378
0.983182
0.539133
0.256453
-0.269489
-0.663734
-1.13596
-1.52536
-1.9254
-2.02515
-1.92554
-1.71801
-0.927757
-0.268718
0.829558
1.58394
1.95793
2.1282
2.10939
1.8087
1.54955
1.13262
0.616578
0.269961
-0.37142
-0.72825
-1.44298
-1.81032
-2.32934
-2.60307
-2.46764
-2.33357
-0.981325
-0.183332
1.10935
1.90726
2.67272
2.6612
2.56005
2.37166
1.67746
1.37052
0.66181
0.353283
-0.41128
-1.05512
-1.89764
-2.61634
-3.31665
-3.96868
-3.98199
-3.29029
-1.76633
-0.339739
1.41749
2.8044
3.75461
3.82643
3.57745
3.05916
2.48244
1.7425
0.952366
0.360192
-0.573474
-1.20051
-2.5398
-3.21383
-4.55176
-5.17507
-5.56695
-5.02112
-1.69989
-0.31454
1.44807
3.58605
5.60786
5.18874
4.8336
3.83164
2.86421
2.22694
1.07252
0.561224
-0.63439
-1.71736
-3.10578
-4.68965
-6.24691
-7.50813
-8.24326
-7.21373
-2.14165
-0.656505
1.39019
5.82413
8.62826
8.13591
6.78959
5.53514
3.96101
2.93322
1.52228
0.579148
-0.865789
-1.92788
-3.94833
-5.0323
-7.52929
-8.62866
-10.0852
-7.7359
3.58169
-3.74785
-3.83886
5.60212
9.86589
10.0658
7.46156
6.4649
4.29395
3.43182
1.62802
0.744328
-0.853725
-2.34402
-4.59284
-5.57951
-7.84865
-9.56171
-9.4146
0.34818
27.5198
2.37522
-31.8628
-0.4558
13.5368
11.9175
10.1127
8.2711
5.60566
3.84422
2.11893
0.801178
-0.921513
-2.45962
-4.63763
-6.55342
-8.53912
-8.95506
-4.82892
17.6354
34.7069
13.7832
-38.8242
-17.6816
6.9927
12.1008
9.83995
9.01605
6.31407
4.32449
2.16492
0.858791
-0.983281
-2.62621
-4.69735
-6.98405
-9.38615
-11.6775
-12.9212
-7.94643
13.707
10.607
-13.1575
4.21044
13.0642
14.9369
11.9427
9.85925
6.30337
4.68575
2.22242
0.915403
-0.854149
-2.27058
-4.38781
-5.79864
-8.67198
-10.6025
-11.5172
-5.25156
6.09054
17.6703
-14.3466
1.00317
8.67474
12.1223
10.5127
8.29396
5.36819
3.9909
2.1063
0.866993
-0.81896
-1.90667
-3.52656
-4.67431
-7.18865
-8.37825
-9.37576
-4.7589
2.76011
7.03212
-6.26964
0.870527
8.15162
9.96416
8.58201
7.19783
4.96283
3.49288
1.69961
0.770212
-0.650095
-1.67517
-2.91089
-4.18368
-5.48856
-6.7456
-7.02088
-5.70538
-1.84551
-0.24602
1.31015
3.5547
7.19085
6.87196
6.45431
6.00653
3.90308
2.90208
1.52783
0.635004
-0.553251
-1.01316
-2.50981
-2.51822
-3.82768
-3.7784
-4.6065
-3.39918
-1.39325
-0.204174
0.567741
1.90927
4.35992
4.96782
4.29215
3.93842
2.66825
2.32727
1.0058
0.537645
-0.421827
-0.951606
-1.68183
-2.31355
-2.85568
-3.07367
-3.33187
-3.17059
-2.24468
-0.476248
1.12084
2.62973
3.72177
3.55911
4.08166
3.00446
2.53089
1.6405
0.955011
0.412794
-0.36568
-0.513876
-1.27767
-1.30851
-1.97304
-2.10916
-1.91624
-2.40444
-1.10534
-0.568322
1.22588
1.33248
2.71246
2.09229
2.27314
2.12273
1.43672
1.30515
0.51179
0.364417
-0.207807
-0.471946
-0.931388
-1.11566
-1.38252
-1.66968
-1.35945
-1.19926
-0.769091
-0.284412
0.570564
1.21596
1.51454
1.6898
1.83071
1.52601
1.12764
0.848626
0.47484
0.208524
-0.207897
-0.223346
-0.596591
-0.73367
-0.847225
-0.938914
-0.809435
-0.788705
-0.27507
-0.327885
0.349998
0.500002
1.02259
0.906917
1.14627
0.903606
0.645792
0.626052
0.215799
0.212495
-0.145353
-0.250784
-0.457368
-0.512816
-0.687196
-0.863319
-0.616045
-0.633348
-0.258254
-0.105208
0.26242
0.44912
0.723182
0.866142
0.889001
0.754867
0.59804
0.441875
0.248199
0.140726
-0.11193
-0.146912
-0.427595
-0.395122
-0.545633
-0.56536
-0.479502
-0.443992
-0.154629
-0.122196
0.259094
0.307492
0.547701
0.576939
0.662836
0.608948
0.414419
0.425598
0.165403
0.126435
-0.130467
-0.0915934
-0.316158
-0.301732
-0.421276
-0.420134
-0.333239
-0.30967
-0.0211385
-0.0356545
0.308611
0.290423
0.509691
0.480441
0.491192
0.454915
0.318376
0.308643
0.0847453
0.129803
-0.126999
-0.162358
-0.374103
-0.445799
-0.540475
-0.574421
-0.464327
-0.36263
-0.100651
-0.00599308
0.280944
0.378853
0.602641
0.621951
0.64708
0.555015
0.442021
0.371162
0.147921
0.124941
-0.199772
-0.144887
-0.508796
-0.494981
-0.736059
-0.725399
-0.636552
-0.647732
-0.0527732
-0.195527
0.445632
0.455976
0.855335
0.811967
0.783317
0.759815
0.488284
0.480671
0.117853
0.190158
-0.18589
-0.339137
-0.672846
-0.873507
-1.03712
-1.17589
-1.01884
-0.742684
-0.147351
-0.089565
0.284779
0.645925
1.04406
1.27954
1.22703
1.07552
0.8501
0.624935
0.30377
0.171828
-0.316944
-0.29299
-0.908004
-0.91964
-1.37409
-1.32971
-1.10686
-0.962287
0.0392076
-0.629698
0.408856
0.658522
1.47922
1.47622
1.39079
1.37658
0.856134
0.831988
0.253765
0.303434
-0.279719
-0.557962
-1.07315
-1.42092
-1.79323
-1.92879
-1.54077
-0.957419
0.428466
-0.375795
-0.883512
0.528061
1.8497
2.27934
2.24134
1.87216
1.38863
1.00104
0.497585
0.257668
-0.43212
-0.4478
-1.289
-1.33485
-1.90163
-0.866476
-0.442766
1.99923
3.77488
-0.231283
-3.08524
-1.82152
-0.00927177
2.0169
1.3516
2.11669
1.23908
1.23248
0.377813
0.402872
-0.345054
-0.614693
-1.29442
-1.62633
-1.65001
-0.753927
0.896989
3.68937
8.76231
-2.26177
-7.82164
-5.63562
-0.380336
1.78657
1.89351
2.31745
1.58721
1.27659
0.604002
0.32827
-0.428852
-0.48576
-1.28494
-1.05955
-1.28482
0.139309
1.10575
6.63536
11.451
-9.76337
-10.3434
-0.957632
-2.53799
1.41597
1.01258
1.89662
1.12328
1.21297
0.419739
0.389412
-0.358714
-0.482335
-1.10681
-1.22345
-1.42756
-0.817457
-0.0190254
2.50608
2.76899
-5.56444
1.99196
0.413291
-0.438267
1.58959
2.01118
1.96368
1.6865
1.22189
0.520333
0.357389
-0.333257
-0.402976
-1.02245
-0.97262
-0.985976
-0.13651
0.699409
6.2202
5.1617
13.6654
-8.77745
-4.48805
-4.22783
0.130611
0.768578
1.01742
0.957777
0.908849
0.359658
0.314788
-0.31949
-0.19935
-0.827247
-0.521614
-0.729897
0.366252
1.02224
4.22252
6.42614
7.56113
-7.73729
-5.71246
-2.45631
-0.119837
0.501195
1.07724
0.620098
0.791893
0.184103
0.320181
-0.207607
-0.199049
-0.512353
-0.522638
-0.551122
0.310194
1.05739
2.08193
3.07478
0.87342
-1.46597
-2.55044
-0.923195
-0.742115
0.280466
0.347162
0.490605
0.566564
0.187713
0.205646
-0.256107
0.0979309
-0.402185
0.012433
-0.393673
0.716543
0.626431
1.81146
2.45892
1.1671
-1.46575
-2.54456
-1.18732
-0.352788
-0.348051
0.454486
0.0294521
0.403093
-0.11067
0.244537
-0.104257
-0.0316938
-0.178025
-0.159837
-0.192135
-0.0952346
0.268393
0.270013
0.299967
0.189805
-0.101112
-0.196289
0.0830822
-0.207354
0.235388
0.202205
0.137459
0.186211
0.0283995
0.101478
-0.15111
0.218296
-0.0464681
0.26166
0.13428
0.400435
0.492858
0.369697
0.57647
-0.145749
0.134277
-0.507226
-0.157991
-0.410773
-0.272304
-0.0825881
-0.252145
0.0626565
-0.215149
0.152212
-0.0355287
0.118927
0.066913
0.168764
0.204979
0.223985
0.365155
0.402965
0.365156
0.111893
-0.116949
-0.310309
-0.279262
-0.32371
-0.134276
-0.167235
-0.134573
-0.0692355
-0.106068
0.0353197
-0.0628838
0.263045
0.153593
0.383424
0.372602
0.459271
0.503879
0.329855
0.41714
-0.0159209
0.104769
-0.383303
-0.252333
-0.489758
-0.391554
-0.310712
-0.386557
-0.135976
-0.257861
0.0655672
-0.00973527
0.197352
0.209488
0.34753
0.383745
0.425284
0.480305
0.39665
0.365675
0.0965751
-0.026975
-0.301322
-0.317053
-0.433262
-0.363787
-0.349713
-0.318595
-0.200167
-0.19349
0.0104512
-0.015789
0.244807
0.223427
0.428804
0.436063
0.494814
0.537821
0.390337
0.399397
0.0522466
0.0114064
-0.339706
-0.323398
-0.482567
-0.451133
-0.399036
-0.40698
-0.216314
-0.237608
0.0189079
-0.155774
-0.176832
-0.442405
-0.466852
-0.597497
-0.601786
-0.514151
-0.479454
-0.168186
-0.10917
0.304029
0.363932
0.639845
0.647549
0.693143
0.653238
0.500405
0.457711
0.181418
0.15732
-0.152346
-0.23862
-0.493747
-0.581571
-0.690338
-0.72272
-0.619656
-0.530001
-0.243371
-0.0975679
0.282848
0.449933
0.699188
0.763913
0.81885
0.747432
0.610804
0.508001
0.242036
0.15314
-0.216285
-0.203951
-0.585227
-0.580729
-0.801446
-0.779813
-0.683291
-0.670762
-0.203676
-0.251153
0.407628
0.436659
0.853989
0.850993
0.875969
0.860255
0.612921
0.593291
0.203456
0.215437
-0.198328
-0.372239
-0.707266
-0.885239
-1.04395
-1.11648
-0.955832
-0.746893
-0.350457
-0.236161
0.297727
0.605723
0.966162
1.20018
1.25078
1.12136
0.919559
0.713826
0.371807
0.197701
-0.319006
-0.292172
-0.875187
-0.831782
-1.22177
-1.0553
-0.884623
-0.974318
-0.211845
-0.661533
0.480804
0.529414
1.24555
1.26613
1.20711
1.33927
0.870665
0.887581
0.290436
0.318109
-0.269784
-0.516578
-0.97923
-1.22463
-1.47416
-1.54436
-1.2156
-1.05048
-0.337329
-0.691463
-0.235047
0.686293
1.5967
1.87977
1.83905
1.69712
1.31767
1.00526
0.525288
0.268161
-0.409006
-0.373807
-1.15721
-0.920697
-1.56181
-0.591751
-0.457215
0.877874
1.37818
-1.41385
-0.928017
-0.588173
-0.0207273
1.5314
0.984898
1.89494
1.04426
1.19832
0.385933
0.410496
-0.326525
-0.552253
-1.10921
-1.25727
-1.5114
-0.83204
0.249458
1.11719
2.58157
-2.07097
-2.8682
-1.40175
0.98202
1.62402
1.72619
2.11053
1.48922
1.24288
0.599005
0.336237
-0.404017
-0.422872
-1.15184
-0.973864
-1.22913
-0.32523
0.326126
3.2137
-1.29892
-6.50495
1.13297
2.2667
-0.915564
1.8662
1.06165
1.80237
1.13838
1.25271
0.44992
0.415844
-0.347945
-0.47017
-1.09181
-1.10013
-1.37033
-1.11291
-0.501366
1.21298
0.132147
-3.58189
2.49735
1.41811
0.973292
2.27738
2.16706
2.09831
1.47024
1.27622
0.540055
0.370919
-0.324898
-0.394102
-0.937601
-0.897895
-0.991799
-0.329009
-0.0643107
4.7449
3.7975
14.1596
-7.96756
-2.20056
-2.40711
0.983991
1.08683
1.2884
1.14903
1.01457
0.429532
0.340715
-0.33207
-0.204059
-0.790001
-0.53848
-0.867892
0.105442
0.258072
2.64168
4.59616
6.578
-6.72818
-3.85288
-1.28454
0.527309
0.740454
1.22304
0.822767
0.934175
0.264857
0.353977
-0.228851
-0.250879
-0.612053
-0.538535
-0.608413
-0.0317134
0.633863
1.15116
1.93123
0.110945
-1.04571
-1.59071
-0.192755
-0.320258
0.501602
0.762492
0.696276
0.680281
0.277039
0.23897
-0.281091
0.0112515
-0.499096
-0.0928473
-0.536026
0.524711
0.302343
1.27175
1.79114
0.757834
-1.26464
-2.03696
-0.800459
-0.0525092
-0.127262
0.742547
0.224144
0.596115
0.0211538
0.294157
-0.143787
-0.122444
-0.337092
-0.348765
-0.359784
-0.32999
-0.0320227
-0.12987
-0.126399
-0.0556908
-0.0360913
0.107759
0.393254
0.0815114
0.491288
0.450718
0.406521
0.394604
0.143633
0.149758
-0.189107
0.0993943
-0.233031
0.0394347
-0.157791
0.0923081
0.158997
-0.10175
0.245817
-0.304738
0.214196
-0.304443
0.227087
-0.0822524
0.0399674
0.240063
0.0137398
0.273507
-0.080662
0.19422
-0.0803138
-0.0149544
-0.131761
-0.101787
-0.110446
-0.111517
0.0185204
0.0365758
0.0768601
-0.0148034
0.0148023
-0.0962518
0.0497073
0.0378906
0.189213
0.166937
0.142889
0.162559
0.0294487
0.0841729
-0.106255
0.121904
-0.0624268
0.121578
0.0338195
0.0977398
0.154191
0.00271253
0.175949
-0.144647
0.153323
-0.160278
0.0589957
-0.105726
-0.0493891
0.01669
-0.0877548
0.0827863
-0.109928
0.109925
-0.0518187
0.060422
-0.0159763
0.0531848
0.0423126
0.0514284
0.112232
0.0571935
0.106742
-0.0133975
0.0371843
-0.0849901
-0.0131975
-0.0733311
-0.008086
-0.00854481
-0.0268089
0.0336664
-0.0506811
0.0546885
-0.0601959
0.105771
0.00826074
0.129511
0.0917064
0.116688
0.160387
0.0555016
0.146847
-0.0518949
0.0780915
-0.121122
-0.0165683
-0.122251
-0.080727
-0.0581274
-0.105208
0.0073252
-0.0966046
0.0630759
-0.135446
-0.111202
-0.338396
-0.32509
-0.428722
-0.425021
-0.350837
-0.359286
-0.107931
-0.121453
0.230821
0.228335
0.463406
0.450117
0.502097
0.485148
0.363469
0.361718
0.121803
0.138533
-0.128026
-0.162184
-0.370597
-0.412034
-0.489266
-0.510081
-0.416499
-0.376655
-0.162555
-0.0985244
0.196573
0.281937
0.480747
0.523811
0.590871
0.549288
0.452187
0.394594
0.173209
0.131237
-0.184575
-0.101423
-0.419173
-0.35187
-0.525842
-0.48072
-0.402173
-0.476592
-0.110248
-0.258236
0.317532
0.227548
0.576459
0.533453
0.57109
0.594917
0.398515
0.446075
0.113662
0.188366
-0.156271
-0.23643
-0.481915
-0.575689
-0.663533
-0.712707
-0.580263
-0.499517
-0.258143
-0.228474
0.202554
0.365087
0.589056
0.756524
0.826249
0.756583
0.63814
0.516458
0.253117
0.161386
-0.264016
-0.110114
-0.575918
-0.408232
-0.710664
-0.502238
-0.408941
-0.705369
-0.190862
-0.682783
0.500105
0.308523
0.777417
0.666196
0.638263
0.843105
0.490808
0.620895
0.132251
0.270892
-0.199873
-0.289271
-0.601062
-0.69998
-0.841217
-0.896913
-0.715737
-0.973322
-0.637977
-0.64503
0.0884091
0.658043
1.10073
1.15773
1.11761
1.06883
0.833909
0.673939
0.325696
0.210247
-0.328341
-0.0961498
-0.70057
-0.30686
-0.854432
0.0893805
-0.184086
0.308183
0.0847504
-1.1527
0.408002
0.0678583
-0.285132
0.792818
0.137782
1.14037
0.456931
0.793697
0.14354
0.341632
-0.234377
-0.24771
-0.624551
-0.545112
-0.787106
-0.33665
-0.0531557
-0.863825
-0.287221
-2.08174
0.236276
0.156574
1.10831
0.976538
0.850915
1.28724
0.827871
0.788623
0.328134
0.256444
-0.308059
-0.0882476
-0.622845
-0.245471
-0.51588
0.132776
-0.459615
0.382152
-4.49672
-7.41346
4.37804
4.82106
-0.318382
1.38146
0.183764
0.959419
0.459196
0.765223
0.158217
0.329159
-0.249388
-0.129262
-0.565029
-0.370206
-0.564025
-0.409952
-0.395434
0.0570328
-1.99447
-4.19065
4.26671
2.21695
0.864406
1.46196
1.19168
1.19086
0.755969
0.778531
0.24111
0.284542
-0.230356
-0.0733762
-0.420229
-0.148302
-0.116447
0.619181
0.569548
4.90762
3.38417
14.1096
-6.49132
-1.47475
-2.73279
0.242842
0.118718
0.464041
0.432716
0.56466
0.146796
0.257797
-0.250921
0.0747678
-0.333969
0.129754
-0.0796711
0.938998
0.892789
2.79552
4.41149
6.184
-6.60462
-3.66297
-1.88646
-0.265398
-0.172455
0.491937
0.207794
0.52642
0.0174843
0.284237
-0.161604
-0.0196688
-0.225703
-0.00729229
0.0560466
0.705509
1.28783
1.48261
2.0095
-0.130336
-1.20713
-1.75859
-0.728231
-1.00561
-0.199918
0.129485
0.189567
0.33844
0.0740351
0.18072
-0.231648
0.192938
-0.210968
0.334905
-0.0272848
1.0767
0.792451
1.61882
1.96788
0.753292
-1.42494
-2.32182
-1.31025
-0.600644
-0.695317
0.234837
-0.163715
0.327775
-0.140462
0.248637
-0.10538
0.00637104
-0.126245
-0.0387736
0.00541101
0.0720597
0.33995
0.111538
0.0284786
-0.0879432
-0.176323
-0.145534
0.04207
-0.318697
0.116171
0.0970657
0.13313
0.195377
0.0286729
0.11599
-0.163395
0.189564
-0.0874847
0.247039
0.101535
0.364075
0.414737
0.0990712
0.364054
-0.312913
0.124327
-0.500348
-0.045591
-0.376701
-0.245676
-0.00960611
-0.184922
0.138494
-0.163133
0.171071
-0.0634825
0.0427765
-0.040751
0.0221439
0.0446132
0.05098
0.170115
0.152515
0.137868
-0.0254728
-0.0614257
-0.214266
-0.125839
-0.153942
0.011671
0.00884065
0.0194444
0.0738425
-0.0238054
0.0685705
-0.0972043
0.156586
-0.00739504
0.197881
0.120621
0.197431
0.245172
0.0615719
0.208419
-0.157427
0.102288
-0.248917
-0.0502929
-0.227876
-0.162263
-0.0829995
-0.168176
0.0301216
-0.143324
0.100931
-0.0460159
0.0801166
0.0133525
0.0945276
0.0915877
0.0968778
0.150823
0.0810706
0.116458
-0.0287437
0.00037114
-0.139503
-0.0771281
-0.140376
-0.0736058
-0.0651677
-0.0727975
0.0033232
-0.070256
0.048683
-0.0570692
0.119801
0.0276409
0.155153
0.121429
0.145936
0.182872
0.0660191
0.146387
-0.0696638
0.0484459
-0.161593
-0.0631456
-0.171814
-0.128129
-0.0996645
-0.136594
-0.013815
-0.111624
0.0592546
-0.124526
-0.0785623
-0.287337
-0.25805
-0.353801
-0.351569
-0.290012
-0.32233
-0.0979934
-0.136814
0.19204
0.16508
0.381756
0.3565
0.408291
0.400707
0.293631
0.311427
0.0909315
0.12819
-0.115247
-0.123761
-0.310806
-0.334155
-0.403075
-0.426647
-0.348498
-0.335816
-0.150956
-0.114092
0.155704
0.215486
0.390515
0.419739
0.485504
0.453069
0.372574
0.336655
0.137314
0.119461
-0.16812
-0.0499645
-0.339233
-0.246052
-0.408245
-0.367978
-0.315059
-0.429759
-0.0978753
-0.272372
0.284786
0.156168
0.468783
0.398051
0.431292
0.467075
0.291862
0.369669
0.0660538
0.173445
-0.135745
-0.171031
-0.380139
-0.442846
-0.515615
-0.575019
-0.483598
-0.463441
-0.269921
-0.241282
0.187122
0.310988
0.479976
0.596944
0.652422
0.595416
0.503349
0.419514
0.192599
0.142958
-0.238262
-0.0235505
-0.443521
-0.235173
-0.526223
-0.343211
-0.328191
-0.712105
-0.235393
-0.683429
0.537292
0.285033
0.680585
0.482202
0.423309
0.632847
0.312685
0.494611
0.0522461
0.248052
-0.17065
-0.189067
-0.447188
-0.507093
-0.647827
-0.764535
-0.705315
-1.11958
-0.823371
-0.653387
0.263883
0.792801
1.08931
0.980916
0.898566
0.826866
0.625944
0.524477
0.232478
0.184437
-0.296753
0.0180372
-0.528722
-0.10036
-0.683385
0.16284
-0.352671
-0.109609
-0.352333
-1.20176
0.787833
0.462001
-0.103849
0.693348
-0.0875108
0.888357
0.22516
0.621475
0.0337916
0.313493
-0.201399
-0.129632
-0.451482
-0.362499
-0.646001
-0.385984
-0.436396
-1.57356
-1.00895
-1.97471
0.920915
0.836535
1.50052
0.979047
0.681637
1.03046
0.593025
0.606984
0.213796
0.226966
-0.274872
0.0328046
-0.450889
-0.0506509
-0.393242
0.0926272
-0.8348
-0.277549
-5.35897
-7.11469
5.15484
5.16539
0.0964473
1.44609
0.0452306
0.731627
0.223598
0.587281
0.0401997
0.300103
-0.218157
-0.0148817
-0.395487
-0.187934
-0.452938
-0.466607
-0.733163
-0.596766
-2.58323
-3.8241
4.43596
2.37958
1.17106
1.46051
1.05037
0.967783
0.540504
0.6136
0.131228
0.257285
-0.200975
0.0396954
-0.258759
0.0496924
0.0442844
0.707498
0.446001
4.64059
3.21016
14.2767
-5.53388
-0.68808
-2.27824
0.383548
0.0269926
0.288811
0.232875
0.418685
0.0451219
0.23338
-0.22756
0.174661
-0.196962
0.309372
0.06415
1.00967
0.784543
2.46201
4.05587
5.69949
-6.49857
-3.12126
-1.77932
-0.237312
-0.330736
0.310757
0.0186716
0.396357
-0.0731316
0.263786
-0.141002
0.0634886
-0.103062
0.148657
0.202286
0.775309
1.28752
1.2825
1.79512
-0.467793
-1.24678
-1.50937
-0.630251
-1.00882
-0.309711
-0.0197945
0.0465169
0.233007
0.00323468
0.163744
-0.216704
0.258289
-0.118935
0.459073
0.0917691
1.15623
0.792522
1.52916
1.84919
0.624273
-1.41503
-2.23343
-1.33234
-0.645817
-0.812722
0.112695
-0.28762
0.242933
-0.197245
0.236843
-0.0942424
0.0505752
-0.0616826
0.0427712
0.0898696
0.123053
0.362299
0.0647219
-0.0255981
-0.178034
-0.213824
-0.142783
0.018687
-0.366599
0.0357086
0.0117269
0.0519783
0.137366
-0.00884939
0.107023
-0.156746
0.217522
-0.0494577
0.30207
0.151634
0.403526
0.430358
0.082262
0.333837
-0.366338
0.101325
-0.516818
-0.0841669
-0.423328
-0.30652
-0.0693447
-0.237534
0.103258
-0.187487
0.165897
-0.0605746
0.0542433
-0.0250495
0.0413732
0.0599242
0.052727
0.15756
0.118393
0.0978247
-0.0678407
-0.0811233
-0.218138
-0.135915
-0.168893
-0.0101201
-0.0137411
-0.00135647
0.059428
-0.0337954
0.0665014
-0.0973602
0.158143
-0.00730971
0.197012
0.115048
0.184953
0.222948
0.0306862
0.176836
-0.189205
0.0869753
-0.25664
-0.0551678
-0.232508
-0.166883
-0.0865864
-0.171681
0.0290675
-0.144889
0.101265
-0.048434
0.073234
0.000748076
0.0767841
0.0671715
0.0648695
0.114124
0.0412582
0.0791578
-0.0574434
-0.011861
-0.137215
-0.0682998
-0.126541
-0.0591085
-0.0509162
-0.0601053
0.013573
-0.0643071
0.0508362
-0.0603238
0.109981
0.010601
0.131716
0.0914087
0.110604
0.143407
0.0253815
0.110726
-0.0959101
0.0374362
-0.159335
-0.0517573
-0.155091
-0.109021
-0.0804042
-0.119094
0.000328577
-0.103357
0.0620012
-0.113002
-0.0441294
-0.234664
-0.190171
-0.278995
-0.277899
-0.226942
-0.278802
-0.078525
-0.145021
0.157841
0.10397
0.301176
0.262245
0.311664
0.310828
0.216891
0.254378
0.0550202
0.116343
-0.102559
-0.0857092
-0.252965
-0.260723
-0.323347
-0.350647
-0.285106
-0.292707
-0.131948
-0.119939
0.12168
0.1533
0.30828
0.322242
0.384769
0.357286
0.290061
0.274674
0.0979064
0.106483
-0.153194
-0.00333785
-0.269192
-0.155355
-0.310688
-0.275058
-0.241089
-0.383565
-0.0804994
-0.280788