/*--------------------------------*- C++ -*----------------------------------*\
| =========                 |                                                 |
| \\      /  F ield         | OpenFOAM: The Open Source CFD Toolbox           |
|  \\    /   O peration     | Version:  2412                                  |
|   \\  /    A nd           | Website:  www.openfoam.com                      |
|    \\/     M anipulation  |                                                 |
\*---------------------------------------------------------------------------*/
FoamFile
{
    version     2.0;
    format      ascii;
    arch        "LSB;label=32;scalar=64";
    class       volScalarField;
    location    "1500";
    object      k;
}
// * * * * * * * * * * * * * * * * * * * * * * * * * * * * * * * * * * * * * //

dimensions      [0 2 -2 0 0 0 0];

internalField   nonuniform List<scalar> 
124215
(
0.032769
0.142499
0.0532494
0.226794
0.13683
0.0443514
0.124284
0.140022
0.0474379
0.206261
0.0489446
0.220026
0.124621
0.0435555
0.207499
0.0606971
0.137848
0.226031
0.0478253
0.119931
0.216831
0.0494891
0.230624
0.131556
0.0548104
0.0583261
0.223881
0.0924881
0.322677
0.000934722
0.0118261
0.0747034
0.230013
0.142189
0.213305
0.217208
0.057585
0.129355
0.224829
0.125125
0.133426
0.0502166
0.129946
0.137913
0.157879
0.0774041
0.229385
0.206744
1.22248
8.74037
0.770927
0.449576
0.220931
0.0400355
0.0184402
0.0891438
0.158935
0.120814
0.224214
0.0516329
0.053684
0.221048
0.150527
0.0904953
0.0366141
0.127345
0.0323778
2.80162
36.5327
153.848
28.3948
1.88055
0.17209
0.137283
0.0588468
0.0319217
0.0830294
0.240989
0.120184
0.224719
0.214155
0.219714
0.0916547
0.0375792
0.187874
0.197902
3.60286
56.2937
423.716
1037.19
297.93
33.0847
2.71815
0.398074
0.032238
0.071189
0.0424956
0.143342
0.123125
0.126134
0.125436
0.143854
0.0444729
0.245588
0.166914
3.68769
56.2535
537.049
1924.67
4346.74
1519.26
362.261
34.6505
3.06423
0.430418
0.0253827
0.036307
0.0873149
0.146618
0.0515796
0.0420875
0.0786128
0.0260778
0.23534
2.83249
45.4027
400.045
1998.35
6940.71
17164.4
8490.12
1486.85
329.473
28.1102
2.6012
0.33603
0.0653245
0.216956
0.224167
0.213318
0.129739
0.00523168
0.336273
1.41712
29.754
338.941
1786.31
8116.94
34530.3
66153.7
45658.6
5853.77
1410.74
208.61
17.4951
1.5634
0.118057
0.0272224
0.131511
0.117133
0.211809
0.21767
0.0356182
9.01239
154.45
1076
4888.81
19173.7
59829.3
131928
76267.7
15612.4
3295.66
775.629
79.6946
6.07378
0.476974
0.197592
0.235074
0.210506
0.0274638
0.162706
0.21466
5.29742
98.0924
763.519
3019.66
9209.68
44642
67635.2
56390.8
17339
3434.81
838.239
86.8398
6.28386
0.633508
0.22909
0.0682155
0.025786
0.121695
0.247568
0.25213
0.823357
11.45
139.824
928.728
2857.6
15615.6
28591
17650.5
7986.42
1393.56
291.386
21.5136
2.79741
0.454249
0.00972716
0.22946
0.118378
0.212749
0.208752
0.030471
0.244851
1.80232
11.612
103.195
610.933
2875.92
7925.94
5821.85
2351.4
373.922
32.3542
5.4128
1.36659
0.233381
0.10593
0.139098
0.231521
0.0465029
0.0759622
0.0649072
0.0725653
0.689486
2.74953
12.9845
92.8643
772.499
2243.71
1501.68
423.919
36.8746
7.17276
2.19008
0.638682
0.0608532
0.228897
0.131251
0.117898
0.206886
0.226785
0.156792
0.0814925
0.269827
0.955936
2.97707
12.2761
83.1688
572.719
248.549
32.7091
7.16373
2.3907
0.882024
0.249512
0.0261779
0.00310717
0.00990063
0.214555
0.0511947
0.0745603
0.0338535
0.22216
0.110784
0.317391
0.942074
2.66377
9.02471
45.0673
19.7475
5.44086
2.18343
0.870657
0.301095
0.199862
0.106288
0.223469
0.0767805
0.0538324
0.128019
0.146881
0.0858818
0.214247
0.0369754
0.00804259
0.22706
0.668556
1.62215
4.25838
2.80531
1.36391
0.628916
0.219781
0.0190484
0.115993
0.0836482
0.0736879
0.147892
0.129461
0.225279
0.121514
0.146263
0.0314856
0.209515
0.218714
0.0284734
0.0687281
0.232631
0.541508
0.464299
0.221842
0.0693396
0.194678
0.172101
0.0896869
0.142861
0.229624
0.123877
0.225913
0.0543835
0.231107
0.135258
0.0846733
0.0336134
0.151639
0.148386
0.0651442
0.0195524
0.225747
0.0562189
0.0230733
0.039084
0.0493401
0.0871879
0.142246
0.235857
0.198305
0.219563
0.0568669
0.134805
0.0575003
0.232132
0.133503
0.153884
0.0730921
0.236751
0.0707719
0.224431
0.0619649
0.233349
0.141844
0.0727231
0.0753369
0.152119
0.248097
0.124358
0.219606
0.059353
0.137701
0.221671
0.134765
0.0537746
0.220004
0.0582196
0.221299
0.12534
0.0360692
0.127468
0.0208363
0.118453
0.23276
0.128663
0.221536
0.0549351
0.129621
0.22597
0.0568651
0.137703
0.222248
0.840525
0.841951
0.844632
0.847713
0.850729
0.852201
0.852056
0.849543
0.846495
0.84365
0.843152
0.845618
0.849018
0.851941
0.852459
0.851254
0.848346
0.845316
0.842622
0.841195
0.841984
0.843831
0.847473
0.852162
0.857491
0.862419
0.866266
0.86939
0.874194
0.886602
0.871873
0.869322
0.868214
0.866133
0.862775
0.858134
0.852909
0.848206
0.844537
0.842664
0.844727
0.847539
0.85343
0.861755
0.872098
0.879575
0.891662
0.919312
1.054
1.52251
1.00658
0.929859
0.90564
0.890742
0.879787
0.872414
0.862417
0.854187
0.848258
0.845412
0.847897
0.852337
0.861804
0.873494
0.884235
0.907252
0.966123
1.35622
4.26852
14.3906
2.89957
1.28541
1.00304
0.934768
0.905223
0.884343
0.873742
0.862664
0.853095
0.84862
0.850975
0.85772
0.872074
0.884166
0.912556
1.00505
1.69746
8.06147
53.3703
185.952
30.3819
5.85218
1.64372
1.07754
0.960205
0.909955
0.884149
0.872282
0.858367
0.851611
0.852487
0.862669
0.87951
0.906871
1.00108
1.78759
10.3595
81.8459
487.49
1433.65
287.05
55.6786
8.01881
1.86287
1.11026
0.959911
0.904929
0.879587
0.863212
0.852978
0.852202
0.866254
0.891176
0.958109
1.57811
9.50712
90.4285
608.551
2716.98
7370.32
1746.15
410.972
62.0829
8.16578
1.73844
1.06365
0.933217
0.890345
0.866434
0.852451
0.84953
0.868893
0.913075
1.21779
5.87226
63.6364
532.182
2749.91
10450.6
26541.8
6995.48
1959.12
368.654
49.2586
5.53951
1.41527
0.987894
0.904601
0.86851
0.84942
0.845687
0.869819
0.967824
2.32577
25.0713
275.535
1918.78
9022.73
30955.5
77463.8
19338.3
5331.92
1074.53
168.362
18.0045
2.46235
1.07668
0.920583
0.868545
0.845491
0.842376
0.868848
0.94162
1.37869
6.96144
66.0911
479.945
2354.87
8591.13
21754.6
7498.14
2170.46
456.96
79.0927
10.5183
2.06192
1.08809
0.929605
0.868239
0.84224
0.841792
0.867483
0.930184
1.09977
2.24482
12.8429
93.6493
532.179
2135.18
6357
2604.48
729.821
163.061
27.538
4.79565
1.59787
1.06151
0.928659
0.868177
0.842456
0.844929
0.867666
0.918945
1.02432
1.42844
3.73936
20.7536
126.691
553.038
1710.75
755.577
191.854
41.49
8.02532
2.35111
1.32104
1.01782
0.918696
0.86865
0.84592
0.848896
0.867846
0.904529
0.976089
1.16515
1.74474
4.78412
23.7127
111.689
388.666
172.507
41.8534
10.0052
2.99719
1.56817
1.15223
0.975315
0.904629
0.869184
0.850189
0.852154
0.866192
0.890787
0.932264
1.03339
1.24395
1.8278
4.68719
17.9506
65.3615
28.8363
8.13679
3.00709
1.62993
1.22567
1.03201
0.932174
0.890872
0.867512
0.853479
0.852933
0.863226
0.879977
0.905135
0.956899
1.06459
1.2411
1.7211
3.34256
8.91275
4.92715
2.36088
1.5684
1.22505
1.06339
0.956958
0.905215
0.880129
0.864515
0.854172
0.851807
0.858638
0.872644
0.88451
0.909768
0.956974
1.03257
1.16228
1.39419
1.92503
1.60667
1.32143
1.15199
1.0318
0.957036
0.909922
0.884622
0.872811
0.859769
0.852896
0.848922
0.853449
0.86289
0.873964
0.884316
0.904877
0.931732
0.975447
1.02143
1.0795
1.06165
1.0177
0.975204
0.932028
0.905153
0.884589
0.874167
0.864032
0.854469
0.849886
0.845808
0.848686
0.854593
0.862926
0.87248
0.879745
0.890409
0.904205
0.91857
0.929219
0.928638
0.918668
0.904521
0.890786
0.880049
0.872759
0.864034
0.855593
0.849583
0.84666
0.84306
0.844941
0.848649
0.853424
0.858596
0.863314
0.866351
0.868246
0.868128
0.868009
0.868206
0.868767
0.869244
0.867524
0.86451
0.859752
0.854453
0.849571
0.845783
0.843841
0.841616
0.843057
0.845773
0.848907
0.851806
0.853058
0.852424
0.849347
0.845456
0.842363
0.842611
0.846098
0.850296
0.853509
0.854184
0.852881
0.849873
0.846647
0.843839
0.842349
0.8258
0.825847
0.826069
0.826266
0.826675
0.826898
0.827053
0.826769
0.826319
0.825863
0.825951
0.826532
0.827119
0.827464
0.827307
0.827055
0.826604
0.826379
0.826135
0.826082
0.825846
0.825998
0.826413
0.827185
0.828335
0.830351
0.832292
0.835201
0.836995
0.838552
0.838522
0.837109
0.835503
0.832693
0.830756
0.828717
0.827522
0.82672
0.826284
0.826125
0.826061
0.826404
0.827569
0.829551
0.833648
0.840122
0.849732
0.861892
0.874559
0.883008
0.882723
0.874262
0.861867
0.849958
0.840404
0.833967
0.829846
0.827854
0.826675
0.82633
0.826255
0.827175
0.82955
0.834887
0.844149
0.86259
0.88616
0.924606
0.960963
0.997521
0.986977
0.95703
0.922864
0.885776
0.862642
0.844386
0.83515
0.829823
0.827438
0.82652
0.826656
0.828312
0.833619
0.8441
0.866753
0.908364
0.975094
1.07989
1.2971
2.57212
1.32602
1.18911
1.07124
0.972437
0.907435
0.866608
0.8442
0.833835
0.828557
0.826915
0.826885
0.830333
0.840086
0.862518
0.908312
1.00358
1.14424
1.62415
7.59207
52.6771
5.4783
1.76504
1.36383
1.13174
1.00043
0.907472
0.862404
0.840223
0.830563
0.827148
0.827055
0.832278
0.849625
0.885825
0.97428
1.14229
1.68868
10.6624
116.094
629.281
93.0998
7.80901
2.093
1.39235
1.12944
0.971219
0.885176
0.849644
0.832492
0.827341
0.826804
0.835191
0.861645
0.923595
1.07623
1.54127
9.05325
123.672
853.003
3290.45
793.48
95.8218
7.01739
2.01736
1.35732
1.06815
0.921915
0.861464
0.835386
0.827108
0.826376
0.836891
0.873828
0.957087
1.20813
4.08308
75.2833
745.423
3572.53
11485.2
2980.8
613.424
42.3704
3.50644
1.63549
1.17792
0.954533
0.873554
0.837098
0.826718
0.825975
0.838381
0.881732
0.982708
1.26724
2.04944
9.81348
128.246
898.255
3025.3
672.619
107.956
9.64689
3.42369
1.89518
1.25893
0.980996
0.88152
0.838595
0.826323
0.826102
0.838442
0.881648
0.981047
1.26035
1.89317
3.54853
13.11
123.399
573.303
102.492
13.1644
5.26346
3.2846
1.88011
1.25717
0.980434
0.881659
0.838732
0.826492
0.826769
0.83722
0.873832
0.954306
1.17754
1.61332
2.68426
5.08358
12.3151
59.0165
11.2683
5.47561
4.71625
2.6628
1.60938
1.17635
0.953994
0.873915
0.837501
0.827134
0.827403
0.835726
0.861814
0.921892
1.06733
1.34748
1.91249
3.30057
4.94597
7.19141
5.21768
4.70919
3.28503
1.91059
1.34682
1.06696
0.921862
0.861955
0.835976
0.827711
0.827746
0.832954
0.850089
0.88555
0.971062
1.12735
1.3766
1.9153
2.6734
3.34352
3.27039
2.66182
1.91163
1.37576
1.12686
0.970961
0.88556
0.850221
0.833158
0.828
0.827569
0.831012
0.840606
0.862719
0.907098
0.999183
1.12593
1.34675
1.61141
1.879
1.87593
1.60926
1.34622
1.12629
0.99937
0.907264
0.862819
0.840759
0.831203
0.827791
0.827291
0.82895
0.834179
0.844549
0.866634
0.907173
0.970466
1.06638
1.17563
1.25618
1.25639
1.17583
1.06668
0.970788
0.907322
0.866792
0.844683
0.834357
0.829147
0.827507
0.826823
0.827741
0.83006
0.835352
0.844371
0.862482
0.885097
0.921501
0.953758
0.980405
0.980242
0.953916
0.921781
0.885448
0.862762
0.844632
0.835572
0.830286
0.827962
0.827051
0.826584
0.826924
0.828059
0.830019
0.834027
0.840391
0.849778
0.861533
0.873615
0.881519
0.881655
0.873872
0.86188
0.850132
0.840702
0.834315
0.830275
0.828305
0.827163
0.826825
0.826335
0.826483
0.826876
0.827642
0.828763
0.830774
0.832694
0.835563
0.837243
0.8387
0.838798
0.837505
0.835924
0.833087
0.831138
0.829096
0.827935
0.82715
0.826742
0.82659
0.826278
0.826321
0.826529
0.82672
0.82712
0.827359
0.827553
0.827313
0.8269
0.826471
0.826577
0.827159
0.827681
0.827945
0.827732
0.82746
0.827023
0.82681
0.826586
0.826539
0.826271
0.826309
0.826478
0.826641
0.826983
0.827234
0.827484
0.827485
0.827399
0.82727
0.82732
0.827526
0.827691
0.827712
0.827447
0.827168
0.826793
0.82661
0.826427
0.826384
0.826304
0.826433
0.826774
0.827451
0.828469
0.830368
0.832268
0.835244
0.83721
0.838925
0.838916
0.837232
0.835342
0.832425
0.830528
0.828624
0.82758
0.826892
0.82654
0.826409
0.826456
0.826756
0.827761
0.829534
0.833239
0.839245
0.848249
0.859827
0.871885
0.879886
0.879577
0.871417
0.859499
0.848128
0.839213
0.833279
0.829589
0.827834
0.826834
0.826541
0.8266
0.827412
0.829514
0.834338
0.842758
0.859787
0.881438
0.9168
0.948751
0.975389
0.97396
0.946684
0.915236
0.880659
0.859397
0.842616
0.834293
0.829532
0.827455
0.826661
0.826911
0.828388
0.833157
0.842662
0.863388
0.901539
0.962267
1.05524
1.16346
1.25059
1.23833
1.15475
1.05001
0.959661
0.900153
0.862779
0.842381
0.833069
0.828382
0.826941
0.827132
0.830244
0.839097
0.859585
0.901433
0.987986
1.10946
1.32464
1.61276
2.13867
1.86311
1.55723
1.30678
1.10266
0.984924
0.900086
0.858989
0.838863
0.830181
0.827139
0.827357
0.832088
0.847934
0.880828
0.961141
1.10738
1.35027
1.92872
3.36289
9.79853
3.80724
2.6045
1.8337
1.32913
1.10002
0.95832
0.879714
0.847536
0.831975
0.827359
0.82734
0.834987
0.859224
0.915397
1.0519
1.3163
1.90829
4.00054
14.0321
64.6218
13.4867
5.08572
3.14501
1.83224
1.301
1.04684
0.913598
0.858623
0.834836
0.827348
0.827249
0.836845
0.8708
0.945659
1.15334
1.56756
2.98244
12.5202
70.5239
258.394
57.4366
11.1047
4.64529
2.53771
1.53688
1.14688
0.943482
0.870124
0.836701
0.827292
0.827139
0.83849
0.878339
0.970188
1.22557
1.8009
3.13546
5.50958
16.0513
77.4391
35.3512
6.67338
4.60571
3.05286
1.78198
1.21986
0.968146
0.877728
0.838371
0.827205
0.827243
0.838524
0.878114
0.968788
1.21998
1.77511
3.03584
4.45065
4.1058
26.3366
20.4639
3.62296
4.36864
3.02147
1.76982
1.21762
0.967635
0.877724
0.838458
0.82732
0.827518
0.837007
0.87049
0.943648
1.14573
1.52743
2.48544
4.27602
4.44686
4.25903
3.74306
4.40113
4.26844
2.48395
1.52571
1.14451
0.942927
0.870202
0.836955
0.827575
0.827726
0.835238
0.858957
0.9136
1.04552
1.29514
1.80067
3.04672
4.26673
4.37607
4.33331
4.26281
3.04817
1.80115
1.2944
1.04487
0.913181
0.858762
0.835186
0.827748
0.827768
0.832407
0.84788
0.879899
0.957653
1.09799
1.31796
1.80449
2.48753
3.01667
3.0105
2.48397
1.80241
1.31695
1.09725
0.957233
0.879605
0.847737
0.832355
0.827774
0.82751
0.830549
0.83911
0.859055
0.899259
0.983074
1.09651
1.29405
1.52556
1.76822
1.76663
1.52495
1.29372
1.09666
0.982982
0.899158
0.858905
0.83903
0.83052
0.827516
0.827236
0.828669
0.833263
0.842483
0.862422
0.899288
0.956971
1.04447
1.14386
1.21668
1.21647
1.14389
1.0445
0.957026
0.899197
0.862355
0.84241
0.833242
0.828673
0.827262
0.826865
0.827642
0.829623
0.834276
0.842287
0.858751
0.879301
0.912898
0.94259
0.967236
0.967196
0.942655
0.91301
0.879448
0.858828
0.842352
0.834311
0.829669
0.827688
0.82692
0.826686
0.826962
0.827894
0.829568
0.833077
0.838821
0.847438
0.858447
0.869929
0.877521
0.87757
0.870059
0.858622
0.847612
0.838954
0.833191
0.829656
0.827976
0.827039
0.826765
0.826506
0.826618
0.826908
0.827523
0.828442
0.830236
0.832019
0.834861
0.836715
0.838356
0.838417
0.836874
0.835078
0.832249
0.830435
0.828611
0.827656
0.827024
0.826721
0.826607
0.826465
0.82649
0.82662
0.826739
0.827021
0.827222
0.827446
0.827434
0.827363
0.827248
0.827315
0.827526
0.827666
0.827685
0.827437
0.827203
0.826886
0.826747
0.826602
0.826574
0.830015
0.830042
0.830191
0.830329
0.830643
0.830865
0.831081
0.831043
0.830919
0.830777
0.830854
0.831105
0.83131
0.831357
0.831115
0.830854
0.830501
0.830338
0.830172
0.830139
0.830037
0.830156
0.830476
0.831128
0.83211
0.833964
0.835789
0.838658
0.840501
0.842141
0.842176
0.840627
0.838856
0.836022
0.834176
0.832299
0.831281
0.83061
0.830276
0.830154
0.830171
0.830458
0.83144
0.833177
0.836816
0.842688
0.851459
0.862605
0.874153
0.881786
0.881706
0.874048
0.862573
0.851518
0.842765
0.836917
0.833269
0.831536
0.830553
0.830269
0.830291
0.831092
0.83316
0.837926
0.84617
0.862828
0.883663
0.91752
0.947355
0.972249
0.971525
0.946455
0.916818
0.883369
0.862689
0.846153
0.837943
0.833213
0.831158
0.830369
0.830578
0.832038
0.836746
0.846088
0.866343
0.903279
0.961541
1.0492
1.14849
1.22163
1.21921
1.14555
1.04699
0.960335
0.90257
0.866023
0.845936
0.836719
0.832065
0.830633
0.830777
0.833859
0.842573
0.862679
0.903235
0.986878
1.10115
1.29738
1.52661
1.77506
1.76347
1.51592
1.29124
1.0984
0.985426
0.90256
0.862338
0.84245
0.833849
0.830819
0.830982
0.835652
0.851234
0.883233
0.960785
1.09971
1.31915
1.79441
2.47595
3.05244
3.01972
2.44742
1.7777
1.31188
1.09646
0.95939
0.882631
0.85102
0.83562
0.831033
0.830951
0.838486
0.862218
0.916642
1.04729
1.29333
1.79111
3.01298
4.30881
4.75481
4.49913
4.25312
2.99265
1.77953
1.28819
1.0451
0.915746
0.861917
0.838451
0.831024
0.830861
0.840299
0.873536
0.945674
1.14392
1.51479
2.44977
4.25457
4.82389
7.0496
5.0495
4.54607
4.21932
2.43801
1.5092
1.14159
0.944714
0.873227
0.840292
0.830975
0.830767
0.841932
0.880962
0.969541
1.21324
1.74745
2.96538
4.47327
6.21187
34.1978
31.0543
5.15025
4.37506
2.95552
1.7427
1.21134
0.968668
0.8807
0.841946
0.8309
0.8309
0.842017
0.880918
0.968724
1.21034
1.73277
2.93374
4.27155
3.00641
22.335
20.0867
3.00816
4.27417
2.93945
1.73446
1.21016
0.968346
0.880768
0.842049
0.831026
0.831194
0.840574
0.873568
0.944817
1.14092
1.50269
2.40883
4.15454
4.2992
3.31773
3.09599
4.30688
4.16998
2.417
1.50437
1.1409
0.944549
0.873437
0.840587
0.831284
0.831415
0.838866
0.862296
0.915891
1.04449
1.28521
1.76246
2.95515
4.155
4.26074
4.24293
4.16505
2.96607
1.7667
1.28591
1.04442
0.915709
0.862191
0.838852
0.831457
0.831462
0.836076
0.851415
0.882957
0.95919
1.09586
1.30621
1.76635
2.41495
2.93244
2.93149
2.41742
1.76791
1.30661
1.09574
0.959052
0.882782
0.851321
0.836046
0.83148
0.831211
0.834242
0.842744
0.86251
0.902052
0.984359
1.09461
1.28473
1.50326
1.73365
1.73278
1.50408
1.28533
1.0952
0.984508
0.902073
0.862415
0.84269
0.834225
0.831224
0.830946
0.832374
0.836948
0.846105
0.865829
0.902096
0.958643
1.04381
1.14004
1.20937
1.20952
1.14046
1.04413
0.958873
0.902115
0.865817
0.846059
0.83694
0.832385
0.830976
0.83059
0.831363
0.833331
0.83797
0.845915
0.862223
0.882426
0.915363
0.944195
0.9681
0.968091
0.944366
0.91557
0.882638
0.862341
0.846003
0.838016
0.833384
0.831413
0.830648
0.830427
0.830695
0.831616
0.833276
0.836765
0.842467
0.851005
0.861858
0.873162
0.880601
0.880674
0.873325
0.862067
0.851203
0.842617
0.83689
0.83337
0.831702
0.830776
0.830509
0.830263
0.830366
0.830641
0.831244
0.832149
0.833934
0.835703
0.838523
0.840352
0.841971
0.842035
0.840522
0.838752
0.835944
0.834141
0.832324
0.831381
0.830761
0.830472
0.830366
0.830231
0.830245
0.830361
0.830463
0.830731
0.830926
0.831148
0.831141
0.831076
0.830967
0.831037
0.831244
0.83138
0.831393
0.831146
0.830917
0.830614
0.830491
0.830361
0.830342
0.833965
0.833993
0.834141
0.834278
0.834584
0.834795
0.834996
0.834946
0.834819
0.834679
0.834758
0.83501
0.835217
0.835272
0.835041
0.83479
0.834443
0.834281
0.834115
0.83408
0.833988
0.834106
0.83442
0.835058
0.836007
0.837794
0.839533
0.84227
0.844007
0.845572
0.84563
0.844178
0.842508
0.839789
0.838017
0.836198
0.835208
0.834549
0.83422
0.834097
0.834121
0.834403
0.835362
0.837046
0.840563
0.846207
0.85462
0.865245
0.876253
0.883516
0.883526
0.876324
0.865373
0.854779
0.846342
0.84069
0.837147
0.835458
0.834493
0.834213
0.83424
0.835022
0.83703
0.841644
0.849571
0.865567
0.885369
0.917486
0.945412
0.96883
0.968594
0.945273
0.917375
0.885414
0.865605
0.849637
0.841694
0.837093
0.835087
0.834314
0.834519
0.835937
0.840499
0.8495
0.868946
0.904191
0.959497
1.042
1.13479
1.20226
1.20144
1.13427
1.04156
0.959251
0.903975
0.868844
0.849437
0.840503
0.835971
0.834572
0.834708
0.837695
0.846111
0.865454
0.904196
0.983889
1.09107
1.27314
1.48025
1.70755
1.70285
1.4785
1.27238
1.09082
0.983588
0.904021
0.865305
0.846056
0.837703
0.834752
0.834902
0.839413
0.854451
0.885078
0.959034
1.09013
1.29269
1.72613
2.34395
2.86777
2.85545
2.34045
1.72509
1.29189
1.08944
0.958662
0.884847
0.85436
0.839415
0.834958
0.834864
0.84214
0.864994
0.917004
1.04111
1.27137
1.7267
2.85357
4.02517
4.26622
4.2047
4.02375
2.86138
1.72928
1.27127
1.04076
0.916735
0.864891
0.842158
0.834946
0.834778
0.843883
0.875915
0.944672
1.1329
1.4766
2.33879
4.01376
4.32789
6.16046
4.8339
4.27223
4.02111
2.34729
1.47869
1.13312
0.944547
0.875847
0.843938
0.8349
0.83469
0.845475
0.883112
0.967724
1.19909
1.69805
2.83812
4.21754
5.80992
35.4918
32.0221
4.5836
4.16915
2.84384
1.70035
1.19965
0.967653
0.883087
0.845549
0.83483
0.834824
0.845579
0.883152
0.967291
1.19759
1.68876
2.81896
4.07827
2.80687
22.5805
20.3379
2.76429
4.10015
2.83439
1.69467
1.19906
0.967488
0.883184
0.845658
0.834954
0.835112
0.844201
0.876129
0.944608
1.13251
1.47409
2.32678
3.97674
4.11287
2.95775
2.82396
4.1288
4.00248
2.34034
1.47815
1.13343
0.944706
0.87612
0.844246
0.835204
0.835327
0.842563
0.865267
0.916979
1.04053
1.27016
1.72002
2.84617
3.98275
4.08659
4.07377
3.99903
2.86245
1.72675
1.27197
1.04098
0.916999
0.865236
0.842569
0.835371
0.835377
0.839865
0.854763
0.88526
0.958783
1.08988
1.28982
1.72404
2.33565
2.82819
2.82912
2.34125
1.72793
1.29126
1.09029
0.958895
0.885192
0.854709
0.839845
0.835394
0.835135
0.838091
0.846361
0.865541
0.903754
0.983163
1.08885
1.27024
1.47647
1.69435
1.69425
1.47826
1.27152
1.0898
0.983527
0.903886
0.865497
0.846329
0.838079
0.835147
0.834876
0.836273
0.840735
0.849637
0.868767
0.903816
0.958374
1.04023
1.13254
1.1986
1.19889
1.1332
1.04077
0.958746
0.903931
0.868803
0.849615
0.840736
0.836285
0.834904
0.834527
0.835286
0.837211
0.841736
0.849457
0.865277
0.8848
0.916609
0.944348
0.967352
0.967392
0.944599
0.916891
0.885062
0.865426
0.849561
0.84179
0.837265
0.835334
0.834581
0.834364
0.83463
0.835534
0.837158
0.84056
0.846099
0.85439
0.864901
0.875858
0.883059
0.883137
0.876035
0.865126
0.854599
0.846258
0.840687
0.837252
0.835618
0.834706
0.834441
0.8342
0.834303
0.834576
0.835169
0.836054
0.837792
0.839507
0.842245
0.844017
0.845591
0.845655
0.844187
0.842473
0.839746
0.837997
0.836225
0.835302
0.834691
0.834404
0.834297
0.834166
0.834182
0.834299
0.834402
0.834666
0.834855
0.83507
0.835061
0.835
0.834896
0.834965
0.835164
0.835294
0.835308
0.83507
0.834846
0.834548
0.834424
0.834292
0.834271
0.837962
0.83799
0.838134
0.838265
0.83856
0.838757
0.838944
0.83888
0.838746
0.838603
0.838684
0.83894
0.839153
0.839221
0.839005
0.838767
0.838431
0.838274
0.838111
0.838077
0.837984
0.8381
0.838406
0.839025
0.839941
0.841665
0.843329
0.845953
0.847602
0.849099
0.849168
0.847797
0.846217
0.843604
0.841902
0.840139
0.839178
0.838536
0.838214
0.838093
0.838114
0.838389
0.839323
0.840954
0.844361
0.849802
0.857912
0.868107
0.878682
0.885647
0.885709
0.878856
0.868338
0.858144
0.849985
0.844513
0.841069
0.839425
0.838482
0.838207
0.838228
0.83899
0.84094
0.845416
0.853067
0.868503
0.887482
0.918258
0.944827
0.967176
0.967117
0.945032
0.918467
0.887738
0.868668
0.853199
0.845499
0.841018
0.839061
0.838304
0.838498
0.839875
0.844304
0.853005
0.871769
0.905645
0.958684
1.03742
1.12574
1.18934
1.18924
1.1263
1.03787
0.958984
0.905744
0.871821
0.853015
0.844338
0.839921
0.838555
0.838674
0.841576
0.849726
0.868422
0.905683
0.98231
1.08446
1.25707
1.45047
1.6634
1.6618
1.45221
1.25864
1.08545
0.982675
0.90583
0.868412
0.849728
0.841604
0.838726
0.838857
0.843228
0.857791
0.887293
0.958421
1.08385
1.27543
1.68274
2.26171
2.75519
2.75349
2.269
1.68789
1.27738
1.08446
0.958636
0.887305
0.857793
0.843261
0.838923
0.838811
0.845858
0.867958
0.918028
1.03713
1.25655
1.68488
2.74903
3.85488
4.08494
4.0345
3.87355
2.77055
1.69286
1.25867
1.03774
0.918137
0.867993
0.845919
0.838904
0.838722
0.847534
0.878526
0.944596
1.12523
1.45055
2.26421
3.85253
4.15751
6.08523
4.76445
4.10677
3.88111
2.28125
1.45572
1.12667
0.944943
0.878622
0.847638
0.838855
0.838634
0.849077
0.885502
0.966852
1.18858
1.66169
2.74686
4.05025
5.57851
36.6975
32.9875
4.28409
4.02313
2.76038
1.66713
1.1904
0.967264
0.885643
0.8492
0.838784
0.83877
0.849195
0.885602
0.966639
1.18783
1.65505
2.73482
3.94327
2.70487
23.1162
20.8191
2.62675
3.97543
2.75431
1.66292
1.19019
0.967204
0.885766
0.849315
0.838908
0.839058
0.847882
0.878864
0.944962
1.12611
1.45192
2.26516
3.84764
3.98451
2.77079
2.66588
4.00603
3.87774
2.28078
1.45715
1.1276
0.94531
0.87895
0.847958
0.839158
0.839278
0.846317
0.868369
0.918442
1.03776
1.25849
1.68734
2.76409
3.85687
3.96498
3.95463
3.87543
2.78223
1.69511
1.26094
1.03853
0.918612
0.868401
0.846344
0.839328
0.839335
0.843707
0.858206
0.887784
0.958983
1.0855
1.27721
1.69129
2.2751
2.74913
2.75098
2.28196
1.69624
1.27921
1.08626
0.959277
0.887803
0.858191
0.843702
0.839358
0.839105
0.841992
0.850049
0.868707
0.905753
0.9827
1.08465
1.25894
1.45532
1.66309
1.66331
1.45755
1.26058
1.08582
0.98322
0.905972
0.868709
0.850038
0.841989
0.839121
0.838857
0.840223
0.844581
0.853249
0.871849
0.905829
0.958681
1.03772
1.12673
1.18997
1.19036
1.12753
1.0384
0.959155
0.90602
0.871928
0.853251
0.844593
0.84024
0.838887
0.838517
0.839261
0.841144
0.845563
0.853078
0.868464
0.887385
0.918198
0.94497
0.967171
0.967236
0.945272
0.918534
0.887687
0.868642
0.8532
0.845627
0.841203
0.839311
0.838572
0.838358
0.838618
0.839506
0.841092
0.844413
0.849803
0.857868
0.868066
0.878703
0.885679
0.885764
0.878893
0.868306
0.858089
0.849971
0.844546
0.84119
0.839591
0.838695
0.838435
0.838196
0.838298
0.838566
0.839147
0.84001
0.841704
0.843367
0.846025
0.847737
0.849261
0.849326
0.847909
0.846255
0.843607
0.841909
0.840181
0.83928
0.83868
0.838398
0.838292
0.838163
0.838179
0.838293
0.838394
0.838651
0.838833
0.839039
0.839024
0.83896
0.838855
0.838923
0.839122
0.839254
0.839275
0.839046
0.83883
0.838539
0.838417
0.838288
0.838267
0.842002
0.842029
0.842169
0.842294
0.842578
0.842763
0.84294
0.842871
0.842738
0.842596
0.842674
0.842928
0.843139
0.843213
0.843007
0.842781
0.842457
0.842306
0.842148
0.842115
0.842024
0.842136
0.842431
0.843029
0.843911
0.845573
0.847169
0.849693
0.85127
0.85271
0.852784
0.851474
0.849967
0.84745
0.845814
0.84411
0.843183
0.84256
0.842248
0.84213
0.842149
0.842415
0.843319
0.844893
0.848184
0.853428
0.861252
0.871064
0.881261
0.887965
0.888049
0.881479
0.871345
0.861522
0.853638
0.848351
0.845016
0.843424
0.842508
0.842241
0.842259
0.842996
0.84488
0.849207
0.856584
0.871481
0.88973
0.919343
0.944819
0.966275
0.966298
0.945172
0.919707
0.890095
0.87172
0.856756
0.849312
0.844967
0.84307
0.842335
0.842518
0.843849
0.848133
0.856529
0.874634
0.90726
0.958326
1.03394
1.11873
1.17938
1.1795
1.11965
1.03475
0.958884
0.90753
0.874779
0.856586
0.848188
0.843902
0.842578
0.842685
0.845491
0.853365
0.871421
0.907317
0.981185
1.07923
1.24457
1.42843
1.63111
1.63009
1.43091
1.24685
1.08071
0.981872
0.90764
0.871497
0.853406
0.845533
0.842741
0.84286
0.847082
0.861163
0.889603
0.958174
1.07879
1.26217
1.65105
2.20468
2.677
2.67533
2.21235
1.65719
1.26493
1.07995
0.958683
0.889752
0.861223
0.847134
0.84293
0.842809
0.84962
0.870976
0.91925
1.03395
1.24449
1.6533
2.67305
3.73312
3.94733
3.90142
3.74911
2.69377
1.66203
1.24736
1.03498
0.919559
0.87109
0.849706
0.842907
0.842722
0.851235
0.881204
0.944833
1.11876
1.42941
2.20706
3.73069
4.01846
5.98786
4.69072
3.97042
3.75781
2.22453
1.43543
1.12071
0.945417
0.881393
0.851365
0.842857
0.842634
0.852729
0.887957
0.966323
1.17952
1.63114
2.6708
3.91378
5.42791
37.9533
34.0716
4.10254
3.89363
2.68544
1.63755
1.18189
0.966982
0.888193
0.85288
0.842787
0.842767
0.852853
0.888088
0.966228
1.17914
1.62575
2.66116
3.8207
2.64853
23.7901
21.407
2.55735
3.85479
2.68103
1.63415
1.18189
0.966988
0.888331
0.852996
0.842908
0.843052
0.851594
0.881604
0.945417
1.12019
1.43218
2.2113
3.72864
3.86485
2.66844
2.58388
3.88564
3.75892
2.22702
1.43781
1.12196
0.94591
0.881752
0.851689
0.843155
0.843269
0.850093
0.871461
0.919899
1.03513
1.24766
1.65835
2.69019
3.73854
3.84684
3.83735
3.75722
2.70839
1.66631
1.25039
1.03609
0.920163
0.871536
0.850136
0.843324
0.843331
0.84757
0.861637
0.890268
0.959159
1.08127
1.26564
1.66207
2.22094
2.67654
2.67869
2.22822
1.66737
1.26789
1.08223
0.959567
0.890348
0.86165
0.847577
0.843358
0.843111
0.845915
0.853733
0.87183
0.907688
0.982167
1.08055
1.24828
1.43596
1.63458
1.63496
1.43836
1.2501
1.08183
0.982782
0.907964
0.871865
0.853739
0.84592
0.843131
0.842873
0.8442
0.848435
0.856843
0.87488
0.907772
0.958931
1.03526
1.12113
1.18183
1.18226
1.122
1.03601
0.959465
0.908014
0.874989
0.856864
0.848457
0.844222
0.842905
0.842543
0.843268
0.845099
0.849392
0.856682
0.871605
0.889918
0.919741
0.945591
0.967023
0.967105
0.945921
0.920109
0.890244
0.871803
0.856815
0.849464
0.845161
0.84332
0.842599
0.84239
0.842643
0.843507
0.845049
0.848275
0.853502
0.861329
0.871207
0.88152
0.888273
0.888361
0.881717
0.871454
0.861556
0.853676
0.848412
0.845148
0.843593
0.84272
0.842466
0.842232
0.842331
0.842593
0.843158
0.843995
0.845639
0.847248
0.849823
0.851477
0.852952
0.853017
0.851648
0.850052
0.847486
0.845843
0.844165
0.84329
0.842706
0.84243
0.842326
0.842199
0.842215
0.842327
0.842424
0.842674
0.842848
0.843047
0.843028
0.842963
0.842859
0.842925
0.843121
0.843253
0.843278
0.843057
0.84285
0.842567
0.842449
0.842322
0.842301
0.84608
0.846105
0.84624
0.84636
0.846633
0.846809
0.846978
0.846908
0.846777
0.846637
0.846714
0.846961
0.847168
0.847244
0.847048
0.846832
0.846519
0.846374
0.846221
0.84619
0.8461
0.846208
0.846493
0.84707
0.847921
0.849526
0.851062
0.853499
0.855017
0.856406
0.85648
0.85522
0.853772
0.851342
0.849766
0.848118
0.847223
0.84662
0.846318
0.846205
0.846222
0.846478
0.847352
0.848872
0.852053
0.857117
0.864684
0.874158
0.884018
0.890491
0.890584
0.884254
0.874458
0.864969
0.857339
0.852227
0.848998
0.847458
0.84657
0.846312
0.846326
0.847039
0.848859
0.853045
0.860169
0.874574
0.892185
0.920782
0.945334
0.96601
0.966069
0.945741
0.921209
0.892598
0.874849
0.860362
0.853162
0.848952
0.847115
0.846402
0.846577
0.847863
0.852007
0.86012
0.877623
0.909133
0.95847
1.03139
1.11314
1.17128
1.1715
1.11418
1.03232
0.959135
0.909485
0.877817
0.860204
0.852075
0.84792
0.846638
0.846736
0.84945
0.857064
0.874527
0.9092
0.980598
1.07514
1.23432
1.41024
1.60397
1.60327
1.41288
1.23678
1.07677
0.981421
0.909605
0.87465
0.857126
0.8495
0.846793
0.846904
0.850985
0.864615
0.892094
0.958373
1.07478
1.25134
1.6247
2.15604
2.60832
2.6073
2.16366
1.63087
1.25428
1.07613
0.95901
0.892311
0.864705
0.851047
0.846975
0.846852
0.85344
0.874102
0.920755
1.03152
1.23438
1.6267
2.6064
3.62184
3.82322
3.78132
3.63724
2.62614
1.6352
1.23744
1.03272
0.921157
0.874258
0.853537
0.84695
0.846766
0.854999
0.884013
0.945455
1.11337
1.41145
2.15794
3.61942
3.89248
5.87102
4.60485
3.84779
3.6458
2.17475
1.41754
1.11549
0.946141
0.884248
0.855142
0.8469
0.846678
0.856445