/*--------------------------------*- C++ -*----------------------------------*\
| =========                 |                                                 |
| \\      /  F ield         | OpenFOAM: The Open Source CFD Toolbox           |
|  \\    /   O peration     | Version:  2412                                  |
|   \\  /    A nd           | Website:  www.openfoam.com                      |
|    \\/     M anipulation  |                                                 |
\*---------------------------------------------------------------------------*/
FoamFile
{
    version     2.0;
    format      ascii;
    arch        "LSB;label=32;scalar=64";
    class       volScalarField;
    location    "1500";
    object      nut;
}
// * * * * * * * * * * * * * * * * * * * * * * * * * * * * * * * * * * * * * //

dimensions      [0 2 -1 0 0 0 0];

internalField   nonuniform List<scalar> 
124215
(
0.0791795
0.0632082
0.0400135
0.130352
0.0604658
0.0335654
0.115033
0.0620875
0.038924
0.0940165
0.0400844
0.0945474
0.101304
0.0193632
0.133306
0.0452848
0.0608453
0.128776
0.0359371
0.0543337
0.0961835
0.0361994
0.157031
0.0567774
0.0404034
0.113325
0.0993218
0.0673247
0.130625
0.000431699
0.0198791
0.0512675
0.0972902
0.112369
0.0925501
0.181163
0.0417108
0.0561584
0.106783
0.099256
0.100346
0.091929
0.0559067
0.100692
0.112025
0.0939001
0.163815
0.182656
0.020042
0.262557
0.0681282
0.191093
0.094652
0.0317964
0.0154391
0.0404802
0.189526
0.092098
0.166315
0.0221482
0.109359
0.0957396
0.108547
0.150632
0.0718508
0.0590423
0.00558192
0.051166
6.94429
11.6143
5.74493
0.029046
0.131373
0.057582
0.0430752
0.0142397
0.0386498
0.106776
0.168152
0.167455
0.100357
0.174773
0.13411
0.000958087
0.125187
0.196765
0.14647
7.23884
14.3794
17.3988
10.1648
4.8533
0.171005
0.0363188
0.0380771
0.0483568
0.0352044
0.121356
0.0536958
0.13644
0.0567901
0.108208
0.0205338
0.115105
0.0310805
0.14452
7.00214
14.3048
19.859
24.7881
13.9805
10.5089
4.50163
0.323097
0.00668081
0.0334647
0.0151587
0.0685757
0.12232
0.0236555
0.0338545
0.127984
0.0120916
0.188877
0.0553109
6.93214
12.1377
18.7784
28.1017
40.0217
25.9555
14.1706
10.0554
4.23659
0.167817
0.00534189
0.0528201
0.00418953
0.099511
0.124932
0.0556797
0.00373001
0.00636096
0.535975
5.90998
12.255
18.2028
29.014
54.2658
67.6961
58.7199
22.7931
15.7919
8.59431
3.92343
0.0263245
0.0847965
0.0115099
0.105214
0.0521629
0.165234
0.0922678
0.0242487
0.4789
10.7908
17.3492
26.4303
42.009
64.5871
87.3333
66.6755
35.5881
19.9886
13.9249
6.0557
0.904322
0.132787
0.134521
0.0637833
0.174125
0.0371877
0.0749259
0.0944085
0.194562
7.65068
13.947
20.2023
27.5803
57.5957
63.2912
57.2535
34.4835
16.7991
11.4684
4.49904
1.99881
0.256761
0.15897
0.0482399
0.0111164
0.0979122
0.188078
0.205004
0.258079
2.61227
5.92451
11.94
15.8333
33.8329
41.8981
32.0579
23.8101
10.7268
6.13478
1.78638
1.22574
0.0353916
0.00451566
0.0694891
0.0976063
0.046055
0.0905918
0.021244
0.101765
0.264334
1.75356
4.02829
8.57928
15.8112
24.3978
19.868
14.2541
6.02728
1.71125
1.00258
0.246385
0.0153816
0.0193803
0.100183
0.0996802
0.0359482
0.0987046
0.0977461
0.0856058
0.440153
1.16584
1.55686
3.54204
10.3383
15.7857
11.9157
6.62586
1.68375
0.945917
0.992671
0.0230147
0.0386074
0.193825
0.0770965
0.0939254
0.0916645
0.179445
0.0692801
0.0643714
0.00419062
0.0401074
1.25243
1.49418
3.58602
10.3012
5.56551
1.73108
0.946442
1.01477
0.0959421
0.0411352
0.0205924
0.00140076
0.0179133
0.161613
0.0929784
0.0328278
0.00070392
0.0970239
0.0831582
0.00924649
0.039835
1.10174
1.53284
3.14721
1.72088
1.00937
0.985697
0.0939506
0.22967
0.218615
0.0474253
0.109533
0.0350014
0.10898
0.0584046
0.104534
0.138462
0.205858
0.0213034
0.00389844
0.00353117
0.0136027
0.257785
1.38636
1.21889
0.297215
0.0267364
0.040907
0.0324099
0.0532452
0.141245
0.119315
0.112125
0.0591529
0.0955013
0.123166
0.0649245
0.02418
0.154143
0.0201259
0.0187661
0.091882
0.13694
0.0077895
0.197151
0.213174
0.0770864
0.234218
0.0828293
0.00732686
0.130362
0.164337
0.0533067
0.142739
0.0249451
0.168781
0.182803
0.0365957
0.028142
0.109532
0.142417
0.0291293
0.0143017
0.00419296
0.0376338
0.0103706
0.000696707
0.0356541
0.0370614
0.16837
0.168806
0.0848749
0.176094
0.0420452
0.120817
0.0248984
0.16765
0.177155
0.0668063
0.0575349
0.11433
0.0335288
0.097902
0.0297905
0.0884612
0.0689539
0.0341796
0.0626692
0.0673281
0.187144
0.0534972
0.176152
0.0426027
0.0608629
0.168557
0.124243
0.0237474
0.163817
0.108197
0.0979749
0.0953344
0.0683536
0.097799
0.00943795
0.0916718
0.0473621
0.0678935
0.101945
0.0970965
0.0590318
0.143194
0.0420377
0.0608633
0.107452
0.0999117
0.100011
0.100193
0.100407
0.100618
0.100727
0.100728
0.10057
0.100373
0.100193
0.100151
0.10031
0.100531
0.100716
0.100739
0.100647
0.100444
0.100232
0.100048
0.0999496
0.100012
0.100139
0.100388
0.100715
0.101083
0.10143
0.101705
0.101951
0.102434
0.103873
0.102222
0.101955
0.101851
0.101691
0.101448
0.101119
0.100757
0.100432
0.100178
0.10005
0.1002
0.100393
0.100798
0.101372
0.102084
0.102616
0.103504
0.106028
0.12068
0.173141
0.114781
0.106552
0.10446
0.103385
0.10262
0.102098
0.101409
0.10084
0.100433
0.100239
0.10042
0.100725
0.101375
0.102183
0.102939
0.104619
0.11002
0.151211
0.461187
1.46208
0.310674
0.14102
0.112144
0.106494
0.104381
0.102935
0.102192
0.101423
0.100768
0.100459
0.100633
0.101097
0.102081
0.102934
0.104991
0.11319
0.18452
0.81254
4.30777
10.5962
2.51854
0.569516
0.171373
0.11768
0.108219
0.104697
0.102919
0.102085
0.101133
0.100667
0.100745
0.101446
0.10261
0.104578
0.112751
0.191964
1.00927
5.71126
17.2021
27.9841
11.1601
3.87659
0.729377
0.189402
0.119815
0.108182
0.104356
0.102602
0.101472
0.100769
0.100734
0.101703
0.103455
0.109134
0.171745
0.93144
6.15932
18.412
33.3184
47.2391
23.3038
13.3719
4.04695
0.73458
0.177072
0.116235
0.106347
0.10335
0.101703
0.100741
0.100566
0.101906
0.105321
0.135953
0.600112
4.77138
17.5436
32.5741
49.6562
66.4862
36.6017
25.7934
12.6345
3.37648
0.511659
0.147927
0.110511
0.104355
0.101861
0.100548
0.100313
0.10203
0.110905
0.254129
2.28588
13.2455
31.6391
51.4489
72.0034
86.8279
54.3485
37.6783
21.5406
8.16389
1.46953
0.245119
0.118447
0.10553
0.10188
0.100289
0.100095
0.101936
0.107469
0.149313
0.653157
4.17579
13.8438
26.6981
40.7118
59.2479
32.5818
20.1817
10.8841
3.90119
0.813846
0.19902
0.118147
0.106115
0.101868
0.100075
0.100054
0.101828
0.106185
0.11941
0.216456
0.984604
4.53736
12.6862
21.6547
35.8659
20.3941
11.1679
5.47906
1.58424
0.382084
0.154784
0.115313
0.106
0.101861
0.100088
0.100258
0.101827
0.105336
0.112722
0.142887
0.321003
1.35842
5.34269
12.9221
21.6127
12.1233
5.87058
2.01861
0.547192
0.203329
0.132295
0.112028
0.1053
0.101882
0.100315
0.100517
0.101822
0.104335
0.109204
0.122026
0.164196
0.380254
1.43401
4.84876
11.191
5.87171
2.03785
0.626787
0.239871
0.147737
0.120687
0.109112
0.104329
0.101901
0.100594
0.100724
0.101689
0.103378
0.106222
0.11297
0.127151
0.169937
0.372447
1.18961
3.51292
1.66949
0.554983
0.240613
0.151728
0.125317
0.112821
0.106203
0.103375
0.101768
0.100803
0.100766
0.101474
0.102627
0.104362
0.107867
0.114988
0.126929
0.162038
0.287919
0.702397
0.393225
0.20422
0.147785
0.125279
0.114845
0.107859
0.104359
0.102627
0.101551
0.10084
0.100679
0.101148
0.102107
0.102938
0.104672
0.107869
0.112907
0.121756
0.139583
0.186288
0.155693
0.132354
0.120674
0.112806
0.107861
0.104673
0.102938
0.10211
0.101216
0.100744
0.100476
0.100788
0.101436
0.1022
0.102924
0.104341
0.10618
0.109147
0.112435
0.117261
0.115341
0.112018
0.109103
0.106193
0.104354
0.102933
0.102207
0.101503
0.10085
0.100533
0.100261
0.100457
0.100862
0.101437
0.102092
0.102607
0.103347
0.104304
0.105295
0.10607
0.105995
0.105292
0.10432
0.103366
0.102622
0.102106
0.101502
0.100922
0.10051
0.10031
0.100073
0.100202
0.100454
0.100785
0.101143
0.101473
0.101692
0.101839
0.101844
0.101849
0.101859
0.101886
0.101902
0.101767
0.101549
0.101213
0.100848
0.100509
0.10025
0.100118
0.0999714
0.100072
0.100257
0.100473
0.100675
0.100768
0.100735
0.100538
0.100283
0.100079
0.100095
0.100323
0.1006
0.100803
0.100839
0.100742
0.100532
0.100309
0.100118
0.100014
0.098695
0.0987003
0.0987184
0.0987383
0.0987726
0.0987982
0.0988177
0.0988091
0.0987854
0.0987588
0.0987642
0.098798
0.0988298
0.0988415
0.0988208
0.0987925
0.0987547
0.0987325
0.0987127
0.0987069
0.0987001
0.0987131
0.0987458
0.0988068
0.0988952
0.0990472
0.0991944
0.0994093
0.0995444
0.0996583
0.0996556
0.0995501
0.0994264
0.0992172
0.0990693
0.098915
0.0988229
0.0987595
0.0987252
0.0987116
0.0987175
0.0987449
0.0988306
0.0989794
0.0992739
0.0997403
0.100418
0.101273
0.10215
0.102736
0.102714
0.102127
0.101267
0.100428
0.0997534
0.0992889
0.0989923
0.0988425
0.0987557
0.098728
0.0987369
0.0988055
0.0989791
0.099364
0.100023
0.101314
0.102947
0.105559
0.108018
0.110696
0.109724
0.107734
0.105438
0.102915
0.101311
0.100032
0.0993741
0.0989896
0.0988153
0.0987467
0.0987701
0.0988926
0.0992711
0.100019
0.101596
0.104452
0.108901
0.115745
0.132859
0.252306
0.132209
0.122481
0.115113
0.10872
0.104382
0.101578
0.100017
0.0992771
0.0989005
0.098779
0.0987956
0.0990444
0.0997364
0.101308
0.104448
0.110771
0.119841
0.156487
0.643058
3.4148
0.445631
0.158928
0.132927
0.118925
0.110559
0.104383
0.101291
0.0997364
0.0990507
0.0988043
0.0988156
0.0991913
0.100408
0.102923
0.108847
0.119687
0.160918
0.824546
5.43288
15.8375
4.46419
0.550973
0.17604
0.134571
0.118779
0.108637
0.102869
0.100399
0.0991959
0.0988253
0.0988086
0.0994057
0.101253
0.105489
0.115474
0.148836
0.711795
5.42872
16.5935
31.3839
16.2718
4.19914
0.463908
0.170192
0.132504
0.114914
0.105366
0.10123
0.0994085
0.0988192
0.0987859
0.0995338
0.102097
0.107742
0.124357
0.360137
4.12299
16.4863
31.9169
49.7455
29.0881
14.8152
2.19175
0.257695
0.148446
0.121756
0.107557
0.102067
0.0995372
0.0987988
0.0987625
0.0996426
0.102643
0.109434
0.127241
0.17398
0.637739
4.94107
15.0248
26.4382
9.67712
3.01227
0.513381
0.233933
0.161938
0.126671
0.109308
0.102618
0.0996463
0.0987758
0.0987701
0.0996455
0.102636
0.109321
0.126758
0.161884
0.242664
0.710617
3.69376
8.75677
1.9183
0.47046
0.299217
0.225766
0.161053
0.126551
0.109268
0.102625
0.0996544
0.0987863
0.0988094
0.0995526
0.102093
0.107548
0.121725
0.146907
0.199961
0.302177
0.653314
1.88653
0.411172
0.305608
0.281786
0.198733
0.146669
0.12164
0.107515
0.102087
0.0995613
0.0988241
0.0988441
0.0994363
0.101257
0.105367
0.114858
0.131891
0.162667
0.226507
0.294669
0.400666
0.297841
0.281562
0.225618
0.162556
0.131842
0.114824
0.105354
0.101257
0.0994433
0.0988552
0.0988554
0.0992296
0.100431
0.102894
0.108625
0.118646
0.133587
0.162855
0.199438
0.229877
0.225216
0.198719
0.162624
0.133525
0.118605
0.108608
0.102885
0.10043
0.0992339
0.0988633
0.0988333
0.0990812
0.0997614
0.10131
0.104353
0.110472
0.118554
0.131849
0.1468
0.161045
0.160831
0.146663
0.131807
0.118569
0.110476
0.104356
0.101308
0.099763
0.0990854
0.0988396
0.0988031
0.0989254
0.0992976
0.100037
0.101573
0.104357
0.108581
0.114793
0.121599
0.126491
0.126498
0.121605
0.114805
0.108596
0.104359
0.101576
0.100038
0.0993017
0.0989306
0.0988096
0.0987641
0.0988323
0.0990013
0.0993821
0.100023
0.101291
0.102858
0.105332
0.107499
0.109262
0.10925
0.107507
0.105347
0.102876
0.101303
0.100034
0.0993899
0.0990092
0.0988397
0.098772
0.098741
0.0987679
0.0988509
0.0989974
0.0992846
0.0997422
0.100403
0.101229
0.102066
0.102613
0.102621
0.102081
0.101249
0.100423
0.0997579
0.0992981
0.0990082
0.0988607
0.098777
0.0987501
0.0987208
0.0987332
0.0987639
0.0988237
0.0989092
0.0990597
0.0992045
0.0994157
0.0995425
0.0996493
0.0996553
0.0995584
0.0994371
0.0992271
0.0990796
0.0989262
0.0988374
0.0987759
0.098744
0.0987313
0.0987148
0.0987195
0.0987361
0.0987549
0.0987877
0.0988135
0.0988347
0.0988284
0.0988068
0.0987819
0.0987885
0.0988227
0.0988506
0.0988575
0.0988341
0.0988054
0.0987695
0.0987488
0.0987309
0.0987258
0.0985022
0.0985069
0.0985213
0.0985388
0.0985684
0.0985957
0.0986213
0.0986316
0.0986322
0.0986275
0.0986302
0.098639
0.0986426
0.0986328
0.0986052
0.0985753
0.0985428
0.0985236
0.0985079
0.0985028
0.0985064
0.0985178
0.0985453
0.0985997
0.0986788
0.0988222
0.0989659
0.0991841
0.0993299
0.0994538
0.0994525
0.0993295
0.0991877
0.0989724
0.098828
0.0986834
0.098602
0.0985465
0.0985179
0.0985063
0.0985195
0.0985439
0.0986184
0.0987526
0.0990197
0.099453
0.100088
0.100901
0.101735
0.102288
0.102266
0.101701
0.100875
0.100075
0.0994453
0.0990161
0.0987496
0.0986162
0.0985418
0.0985177
0.0985354
0.0985965
0.098751
0.0991001
0.0997005
0.100894
0.102397
0.104803
0.106954
0.108723
0.108625
0.106815
0.104695
0.10234
0.100862
0.0996842
0.0990897
0.0987446
0.0985916
0.0985316
0.0985624
0.0986723
0.0990134
0.0996935
0.101138
0.103762
0.107824
0.113863
0.120648
0.126153
0.12523
0.120094
0.113528
0.10765
0.103664
0.10109
0.0996666
0.0989992
0.0986636
0.0985562
0.0985872
0.0988124
0.0994418
0.10088
0.103755
0.109521
0.117304
0.130359
0.147337
0.181962
0.160486
0.143645
0.129285
0.116881
0.109319
0.103658
0.100831
0.0994172
0.0987993
0.0985788
0.0986105
0.0989517
0.100065
0.102355
0.10775
0.117175
0.131876
0.164087
0.245484
0.628158
0.258759
0.196277
0.15839
0.130621
0.116714
0.107559
0.102271
0.100028
0.0989347
0.0986014
0.0986191
0.0991642
0.100858
0.104709
0.113654
0.129879
0.162962
0.27003
0.774361
2.62622
0.711334
0.304632
0.219696
0.158394
0.128959
0.113325
0.10458
0.100808
0.0991441
0.09861
0.0986188
0.0993021
0.101659
0.106749
0.120021
0.144525
0.222373
0.705034
2.78723
5.411
1.77
0.589671
0.28281
0.193
0.142528
0.119608
0.106595
0.101604
0.0992823
0.0986118
0.098615
0.0994206
0.10218
0.108377
0.124451
0.156791
0.219104
0.308243
0.548503
1.52387
0.719054
0.24277
0.265051
0.215124
0.155747
0.124088
0.108232
0.102129
0.0994024
0.0986094
0.098621
0.0994218
0.102164
0.108282
0.124098
0.155364
0.214515
0.263565
0.163754
0.539034
0.425477
0.145223
0.259407
0.213901
0.15507
0.123941
0.108196
0.102127
0.0994072
0.0986163
0.0986341
0.0993098
0.101635
0.10661
0.119536
0.141955
0.190279
0.264297
0.259779
0.167613
0.152483
0.259025
0.2641
0.190222
0.141847
0.119449
0.106552
0.101605
0.0992964
0.0986282
0.0986403
0.0991758
0.100834
0.104582
0.11324
0.128597
0.156643
0.215124
0.263962
0.258823
0.258127
0.263908
0.215183
0.156662
0.128545
0.113188
0.104545
0.100811
0.0991628
0.0986324
0.0986316
0.0989662
0.100053
0.102284
0.107514
0.116587
0.129957
0.156884
0.190454
0.213677
0.21344
0.190249
0.156742
0.129887
0.116532
0.107478
0.102255
0.100034
0.0989537
0.098623
0.0986043
0.0988242
0.099433
0.100834
0.103599
0.109195
0.11649
0.128535
0.141857
0.154988
0.154894
0.141807
0.128505
0.116493
0.109181
0.103585
0.100816
0.0994194
0.0988139
0.0985963
0.0985747
0.0986812
0.0990098
0.0996699
0.10106
0.1036
0.107466
0.113168
0.119413
0.123882
0.123866
0.119409
0.113164
0.107463
0.103587
0.101049
0.0996574
0.0990007
0.0986738
0.0985685
0.0985424
0.0986009
0.0987465
0.0990833
0.0996549
0.10081
0.102238
0.104528
0.10653
0.108167
0.108163
0.106531
0.104531
0.102243
0.100809
0.0996531
0.0990788
0.0987426
0.0985967
0.0985388
0.0985234
0.0985459
0.098615
0.0987418
0.0989945
0.0994092
0.100017
0.100791
0.101586
0.102111
0.102113
0.101593
0.1008
0.100024
0.099413
0.0989965
0.0987414
0.0986139
0.0985443
0.0985219
0.098508
0.0985179
0.0985415
0.098591
0.0986625
0.0987979
0.0989328
0.0991412
0.0992789
0.0993974
0.0994009
0.0992879
0.099153
0.0989446
0.0988067
0.0986686
0.0985941
0.0985431
0.0985184
0.0985082
0.0985031
0.0985065
0.0985178
0.0985317
0.0985564
0.0985794
0.0986025
0.0986112
0.0986124
0.0986085
0.0986125
0.0986219
0.0986243
0.098615
0.0985895
0.0985636
0.0985359
0.0985204
0.0985078
0.0985039
0.098527
0.0985309
0.0985439
0.0985596
0.098587
0.0986121
0.0986351
0.0986426
0.0986405
0.0986349
0.0986395
0.0986513
0.0986577
0.0986499
0.0986241
0.0985957
0.098565
0.0985472
0.0985328
0.0985285
0.0985305
0.098541
0.098567
0.0986193
0.0986954
0.0988348
0.0989724
0.0991819
0.0993184
0.0994363
0.0994379
0.099325
0.0991922
0.098984
0.0988441
0.0987024
0.0986233
0.0985693
0.0985422
0.0985313
0.0985422
0.0985656
0.0986381
0.0987689
0.0990298
0.0994513
0.100066
0.100846
0.101641
0.102165
0.102159
0.101632
0.10084
0.100066
0.099451
0.0990305
0.0987684
0.0986376
0.0985647
0.0985414
0.0985564
0.0986163
0.0987675
0.0991104
0.0996951
0.100857
0.102296
0.104589
0.106588
0.108231
0.108182
0.106526
0.104539
0.102271
0.100842
0.0996874
0.0991044
0.0987636
0.0986131
0.0985539
0.0985816
0.0986896
0.0990243
0.0996891
0.101093
0.103622
0.107502
0.113177
0.119375
0.123839
0.123688
0.119191
0.113034
0.107419
0.103569
0.101065
0.0996712
0.0990145
0.0986833
0.0985771
0.0986046
0.0988263
0.0994424
0.100846
0.103619
0.109169
0.116471
0.12835
0.141444
0.154824
0.154188
0.140834
0.127987
0.116298
0.10907
0.103567
0.100815
0.0994254
0.0988169
0.0985988
0.0986264
0.0989612
0.100049
0.102266
0.107453
0.116381
0.129633
0.155742
0.189055
0.214433
0.212994
0.187705
0.154863
0.12921
0.116175
0.107355
0.102217
0.100026
0.0989499
0.0986207
0.0986337
0.0991678
0.100817
0.10453
0.113058
0.128121
0.155617
0.212746
0.264651
0.274681
0.265399
0.2625
0.211928
0.155018
0.127815
0.112912
0.104461
0.100788
0.0991558
0.0986292
0.0986334
0.0993016
0.101597
0.106476
0.119098
0.140806
0.187957
0.262723
0.279308
0.251206
0.18729
0.264387
0.261309
0.187403
0.140482
0.118945
0.106403
0.101566
0.0992913
0.0986314
0.0986305
0.0994185
0.102107
0.108052
0.123332
0.153366
0.210749
0.263072
0.226933
0.689031
0.621797
0.194417
0.25958
0.210344
0.153094
0.123204
0.107984
0.102079
0.0994095
0.0986298
0.0986385
0.0994231
0.102102
0.107996
0.123147
0.152551
0.209463
0.259829
0.124012
0.452187
0.409237
0.124227
0.259168
0.209712
0.152631
0.123124
0.107961
0.102082
0.0994154
0.0986373
0.0986529
0.0993169
0.101595
0.106415
0.118905
0.140095
0.185949
0.259087
0.258735
0.135436
0.130446
0.259834
0.259687
0.186337
0.140179
0.118893
0.106387
0.101576
0.0993081
0.0986494
0.0986601
0.0991881
0.100817
0.104473
0.112873
0.127632
0.154069
0.210354
0.259108
0.257935
0.257942
0.259512
0.210816
0.154286
0.127664
0.112859
0.104452
0.1008
0.0991779
0.0986537
0.098652
0.0989827
0.100054
0.102239
0.107341
0.116137
0.128874
0.154305
0.186294
0.209413
0.209376
0.18638
0.154362
0.128888
0.116121
0.107323
0.102219
0.100039
0.0989719
0.0986444
0.0986255
0.0988434
0.0994444
0.100824
0.103529
0.108997
0.116056
0.127603
0.140129
0.15259
0.152538
0.140164
0.12763
0.116086
0.108999
0.103523
0.10081
0.0994327
0.098834
0.0986181
0.0985967
0.0987023
0.0990273
0.0996789
0.101047
0.103531
0.107301
0.112824
0.118843
0.123075
0.123082
0.118864
0.112839
0.10731
0.103526
0.101039
0.0996685
0.0990193
0.0986954
0.098591
0.0985658
0.0986235
0.0987674
0.0991009
0.0996645
0.100802
0.102198
0.104431
0.106364
0.107942
0.10794
0.106372
0.10444
0.102207
0.100804
0.0996643
0.0990974
0.098764
0.0986198
0.0985625
0.098548
0.0985699
0.0986377
0.0987626
0.0990124
0.0994215
0.10002
0.100779
0.101557
0.102068
0.102073
0.101566
0.10079
0.100029
0.0994266
0.0990152
0.0987628
0.098637
0.0985686
0.0985468
0.0985338
0.098543
0.0985655
0.0986137
0.0986838
0.0988176
0.0989506
0.0991561
0.099291
0.0994072
0.099411
0.0993008
0.0991687
0.0989631
0.098827
0.0986903
0.0986172
0.0985674
0.0985438
0.0985342
0.0985295
0.0985322
0.0985425
0.098555
0.0985787
0.098601
0.0986237
0.0986325
0.098634
0.0986304
0.0986346
0.0986438
0.0986461
0.0986367
0.0986115
0.0985861
0.0985596
0.0985453
0.0985338
0.0985306
0.0985634
0.0985673
0.0985801
0.0985955
0.0986222
0.0986462
0.098668
0.0986744
0.098672
0.0986665
0.0986712
0.0986831
0.0986897
0.0986827
0.098658
0.0986306
0.0986006
0.0985831
0.0985688
0.0985644
0.0985668
0.0985772
0.0986027
0.0986535
0.0987269
0.0988608
0.0989916
0.099191
0.0993193
0.0994314
0.0994347
0.099329
0.0992039
0.0990048
0.0988709
0.0987341
0.0986574
0.0986047
0.0985781
0.0985673
0.0985784
0.0986013
0.0986718
0.0987981
0.0990492
0.0994527
0.10004
0.100781
0.101536
0.102033
0.102033
0.101538
0.100786
0.100047
0.0994565
0.0990517
0.0987984
0.0986713
0.0986003
0.0985774
0.0985923
0.0986506
0.0987967
0.0991273
0.0996873
0.100798
0.102161
0.10433
0.106196
0.107738
0.107721
0.106185
0.104319
0.10216
0.100795
0.0996853
0.0991237
0.0987937
0.0986475
0.0985897
0.0986168
0.0987212
0.0990442
0.0996821
0.101025
0.10343
0.107104
0.112438
0.11823
0.122346
0.122295
0.118195
0.112406
0.107083
0.103409
0.101011
0.0996703
0.0990367
0.0987156
0.0986124
0.0986388
0.0988528
0.0994452
0.10079
0.10343
0.108705
0.115552
0.126594
0.138469
0.150795
0.150541
0.138367
0.126546
0.115532
0.10868
0.103411
0.100772
0.0994331
0.0988449
0.0986333
0.0986596
0.0989817
0.100027
0.102141
0.107073
0.115492
0.127751
0.151726
0.182332
0.205917
0.205406
0.182173
0.151672
0.127701
0.115444
0.107041
0.102117
0.100012
0.0989729
0.0986545
0.0986664
0.0991798
0.100762
0.104297
0.112382
0.126495
0.151786
0.205264
0.253286
0.256698
0.255162
0.253219
0.205642
0.151933
0.126483
0.112352
0.10427
0.100745
0.0991716
0.0986626
0.0986662
0.099308
0.10151
0.106146
0.118115
0.138279
0.182159
0.252883
0.260633
0.223217
0.180237
0.256438
0.253146
0.182581
0.13839
0.118119
0.106128
0.101496
0.0993021
0.0986649
0.0986637
0.0994214
0.102003
0.107663
0.122156
0.150305
0.204684
0.254719
0.213646
0.690159
0.620754
0.176095
0.253022
0.204934
0.150414
0.122177
0.107648
0.101991
0.0994166
0.0986635
0.0986717
0.0994272
0.102004
0.107632
0.122057
0.149784
0.20389
0.253222
0.116994
0.445498
0.404063
0.115715
0.253344
0.204556
0.150091
0.122134
0.107635
0.101996
0.0994229
0.0986709
0.0986856
0.0993262
0.101521
0.106137
0.118084
0.138118
0.181557
0.251575
0.253136
0.123014
0.120969
0.254426
0.25255
0.182196
0.138335
0.11813
0.106133
0.101511
0.0993198
0.0986825
0.0986926
0.099203
0.100774
0.104288
0.112338
0.126413
0.151408
0.205002
0.251801
0.252363
0.252263
0.252425
0.205697
0.151757
0.12651
0.112356
0.10428
0.100763
0.0991944
0.0986865
0.0986849
0.0990051
0.100041
0.102145
0.107048
0.115469
0.127576
0.151643
0.182014
0.204292
0.204331
0.182256
0.151828
0.127651
0.115486
0.107047
0.102132
0.100029
0.0989952
0.0986775
0.0986593
0.0988708
0.0994528
0.100786
0.103389
0.108647
0.115402
0.126415
0.138251
0.150075
0.150065
0.138342
0.126483
0.115455
0.108664
0.103391
0.100775
0.0994427
0.098862
0.0986521
0.0986314
0.098734
0.0990497
0.0996802
0.101001
0.103392
0.107017
0.112313
0.118077
0.122105
0.12212
0.118114
0.112342
0.107036
0.103393
0.100997
0.0996716
0.0990424
0.0987274
0.0986257
0.0986011
0.0986575
0.0987976
0.0991214
0.0996666
0.100765
0.102109
0.104256
0.10611
0.107624
0.107625
0.106124
0.104271
0.102122
0.10077
0.0996676
0.0991185
0.0987944
0.0986538
0.0985977
0.0985836
0.098605
0.0986714
0.098793
0.0990354
0.099431
0.100009
0.100741
0.101492
0.101985
0.10199
0.101502
0.100753
0.100019
0.0994368
0.0990385
0.0987932
0.0986706
0.0986036
0.0985821
0.0985694
0.0985786
0.0986007
0.0986479
0.0987161
0.0988459
0.0989743
0.0991729
0.0993032
0.0994156
0.0994194
0.099313
0.0991855
0.0989867
0.0988552
0.0987225
0.0986512
0.0986024
0.0985791
0.0985696
0.098565
0.0985679
0.0985781
0.0985906
0.0986137
0.0986354
0.0986574
0.0986659
0.0986675
0.0986642
0.0986683
0.098677
0.098679
0.0986699
0.0986455
0.0986209
0.0985949
0.0985806
0.0985692
0.0985659
0.0986006
0.0986044
0.0986169
0.0986317
0.0986574
0.0986801
0.0987007
0.0987059
0.098703
0.0986972
0.098702
0.0987143
0.0987215
0.0987155
0.0986921
0.0986659
0.0986369
0.09862
0.098606
0.0986017
0.098604
0.0986141
0.0986387
0.0986879
0.0987585
0.0988873
0.0990121
0.0992025
0.0993241
0.099431
0.0994349
0.0993353
0.0992173
0.0990266
0.0988983
0.0987663
0.0986922
0.098641
0.0986151
0.0986045
0.0986152
0.0986374
0.0987057
0.0988277
0.0990697
0.0994572
0.100021
0.100729
0.101451
0.101926
0.101929
0.10146
0.100741
0.100032
0.0994643
0.0990741
0.098829
0.0987058
0.0986367
0.0986144
0.0986286
0.0986851
0.0988264
0.0991456
0.0996838
0.100751
0.102053
0.104123
0.105892
0.107359
0.107354
0.105903
0.104133
0.102065
0.100757
0.0996863
0.0991444
0.0988245
0.0986826
0.0986264
0.0986522
0.0987532
0.0990652
0.0996792
0.100969
0.103272
0.106784
0.111863
0.117369
0.121246
0.121237
0.1174
0.111887
0.106798
0.103272
0.100966
0.0996725
0.0990599
0.0987485
0.0986483
0.0986732
0.0988799
0.0994509
0.100745
0.103274
0.108331
0.114845
0.125315
0.136424
0.148023
0.147928
0.136514
0.125401
0.114901
0.108347
0.103276
0.100737
0.099443
0.0988736
0.0986684
0.0986929
0.0990035
0.100011
0.102039
0.106766
0.114806
0.126402
0.149014
0.177928
0.200441
0.200367
0.178261
0.149277
0.126509
0.114836
0.106772
0.102031
0.100003
0.098997
0.0986887
0.0986988
0.0991938
0.100716
0.104106
0.111845
0.125285
0.149145
0.200096
0.245985
0.249758
0.248635
0.246674
0.201037
0.149565
0.125401
0.111874
0.104104
0.10071
0.0991888
0.0986961
0.0986984
0.0993166
0.101438
0.105875
0.117337
0.136434
0.178084
0.245909
0.253924
0.219633
0.177254
0.250611
0.246976
0.17889
0.136713
0.117415
0.105888
0.101435
0.0993143
0.0986981
0.0986958
0.099426
0.101913
0.107335
0.121197
0.147931
0.200086
0.248613
0.205441
0.690608
0.619813
0.165666
0.247917
0.200667
0.148206
0.121294
0.107351
0.101913
0.0994249
0.0986966
0.0987039
0.0994328
0.101918
0.107318
0.121145
0.147552
0.199574
0.248123
0.113033
0.443167
0.401989
0.110517
0.248833
0.200415
0.147962
0.121276
0.107345
0.101919
0.0994315
0.0987039
0.098718
0.0993368
0.101457
0.105894
0.117383
0.136493
0.178089
0.245768
0.248583
0.11609
0.115033
0.250189
0.246909
0.17882
0.136774
0.117464
0.105907
0.101453
0.0993327
0.0987156
0.0987253
0.0992194
0.100738
0.104127
0.111875
0.125389
0.149245
0.200762
0.246117
0.248097
0.247967
0.246823
0.20154
0.149647
0.125522
0.111915
0.104129
0.100731
0.0992125
0.09872
0.0987184
0.0990288
0.100032
0.102063
0.106793
0.114899
0.126494
0.14947
0.178584
0.200194
0.200272
0.17889
0.149714
0.126602
0.114937
0.106804
0.102056
0.100022
0.0990201
0.0987117
0.0986939
0.0988995
0.0994636
0.100754
0.103267
0.108344
0.114842
0.12541
0.136678
0.147972
0.14798
0.136796
0.1255
0.114909
0.10837
0.103275
0.100747
0.0994552
0.0988914
0.0986872
0.098667
0.0987669
0.0990736
0.0996847
0.100963
0.103271
0.106769
0.111867
0.117412
0.121261
0.121282
0.117458
0.111905
0.106795
0.103277
0.100961
0.0996779
0.0990673
0.0987608
0.0986617
0.0986376
0.0986927
0.098829
0.0991436
0.0996718
0.100735
0.102031
0.104103
0.105885
0.10734
0.107344
0.105902
0.104122
0.102047
0.100742
0.099674
0.0991416
0.0988263
0.0986893
0.0986345
0.0986206
0.0986416
0.0987063
0.0988245
0.09906
0.0994431
0.100003
0.10071
0.101436
0.101911
0.101916
0.101446
0.100723
0.100014
0.0994496
0.0990635
0.0988252
0.0987058
0.0986403
0.0986193
0.0986067
0.0986157
0.0986374
0.0986834
0.0987496
0.0988755
0.0989995
0.0991915
0.0993168
0.0994252
0.099429
0.0993267
0.0992042
0.099012
0.0988848
0.098756
0.0986868
0.0986391
0.0986163
0.098607
0.0986025
0.0986053
0.0986153
0.0986274
0.0986499
0.0986708
0.0986919
0.0986998
0.0987011
0.0986977
0.0987017
0.0987104
0.0987127
0.0987043
0.0986808
0.098657
0.0986317
0.0986178
0.0986066
0.0986034
0.0986384
0.0986421
0.0986541
0.0986683
0.098693
0.0987146
0.0987343
0.098739
0.0987359
0.0987301
0.0987348
0.0987469
0.0987542
0.0987488
0.0987264
0.0987014
0.0986735
0.0986571
0.0986437
0.0986395
0.0986416
0.0986514
0.0986751
0.0987225
0.0987903
0.0989139
0.0990333
0.0992158
0.0993317
0.099434
0.0994383
0.0993435
0.0992311
0.0990482
0.0989253
0.0987982
0.0987269
0.0986775
0.0986524
0.0986422
0.0986525
0.0986739
0.0987397
0.0988569
0.0990897
0.0994616
0.100003
0.100681
0.101375
0.10183
0.101835
0.101387
0.100697
0.100017
0.0994706
0.0990952
0.0988589
0.0987402
0.0986734
0.0986518
0.0986654
0.0987199
0.0988558
0.099163
0.0996796
0.100706
0.101952
0.103936
0.105627
0.10703
0.10703
0.105647
0.103956
0.101971
0.100716
0.099685
0.0991634
0.0988547
0.0987177
0.0986633
0.0986881
0.0987853
0.0990857
0.0996756
0.100915
0.103124
0.106494
0.11136
0.116636
0.120328
0.120333
0.116689
0.111405
0.106524
0.103135
0.100918
0.0996722
0.099082
0.0987813
0.0986846
0.0987081
0.0989072
0.0994564
0.100701
0.103127
0.107986
0.114226
0.124249
0.134817
0.145882
0.145821
0.13495
0.124377
0.114311
0.108023
0.103141
0.100698
0.0994512
0.098902
0.0987038
0.0987271
0.0990257
0.0999958
0.101942
0.106483
0.114197
0.12529
0.14692
0.174693
0.196392
0.19632
0.175048
0.147236
0.125444
0.114261
0.106507
0.101943
0.0999914
0.0990208
0.0987233
0.0987325
0.0992086
0.100673
0.103928
0.111359
0.124243
0.147053
0.196134
0.240424
0.244049
0.243072
0.241029
0.197042
0.14751
0.124402
0.111415
0.103939
0.100672
0.0992055
0.0987303
0.098732
0.0993265
0.101368
0.105625
0.116636
0.134874
0.174831
0.240346
0.24805
0.215481
0.174028
0.245249
0.241377
0.175659
0.1352
0.116745
0.105654
0.101372
0.0993262
0.0987321
0.0987294
0.099432
0.101826
0.10703
0.120333
0.145882
0.196125
0.243122
0.199638
0.690797
0.61954
0.15897
0.242841
0.196756
0.146208
0.120463
0.107062
0.101832
0.0994329
0.0987306
0.0987373
0.0994392
0.101834
0.107021
0.120304
0.145572
0.195706
0.242956
0.110614
0.442237
0.401024
0.107659
0.243905
0.196567
0.146009
0.120458
0.107061
0.10184
0.0994396
0.0987377
0.0987511
0.0993474
0.101391
0.105659
0.116717
0.135015
0.175003
0.240307
0.243773
0.112019
0.111743
0.245284
0.241462
0.175738
0.135317
0.116815
0.105681
0.101392
0.0993449
0.0987492
0.0987585
0.0992352
0.1007
0.103964
0.111424
0.124419
0.147292
0.196887
0.240685
0.243369
0.243189
0.241398
0.19767
0.147703
0.124568
0.111475
0.103973
0.100696
0.0992295
0.0987536
0.0987521
0.0990517
0.10002
0.101978
0.106537
0.114341
0.12548
0.1475
0.175475
0.196374
0.196465
0.175805
0.147765
0.125601
0.114391
0.106555
0.101975
0.100013
0.099044
0.0987459
0.0987286
0.0989273
0.0994721
0.100718
0.10314
0.108037
0.114292
0.12445
0.135219
0.146032
0.146048
0.135347
0.12455
0.114365
0.108069
0.103151
0.100713
0.099465
0.09892
0.0987223
0.0987027
0.0987994
0.099096
0.0996859
0.100919
0.103145
0.106518
0.111426
0.116765
0.120453
0.120477
0.116815
0.111469
0.106547
0.103154
0.10092
0.0996805
0.0990905
0.0987938
0.0986978
0.0986744
0.0987277
0.0988596
0.0991639
0.0996737
0.1007
0.10195
0.103947
0.10566
0.10706
0.107065
0.105679
0.103967
0.101967
0.100708
0.0996769
0.0991625
0.0988573
0.0987246
0.0986714
0.0986579
0.0986782
0.0987409
0.0988553
0.099083
0.0994528
0.0999938
0.100675
0.101376
0.101834
0.101839
0.101387