/*--------------------------------*- C++ -*----------------------------------*\
| =========                 |                                                 |
| \\      /  F ield         | OpenFOAM: The Open Source CFD Toolbox           |
|  \\    /   O peration     | Version:  2412                                  |
|   \\  /    A nd           | Website:  www.openfoam.com                      |
|    \\/     M anipulation  |                                                 |
\*---------------------------------------------------------------------------*/
FoamFile
{
    version     2.0;
    format      ascii;
    arch        "LSB;label=32;scalar=64";
    class       volScalarField;
    location    "1500";
    object      omega;
}
// * * * * * * * * * * * * * * * * * * * * * * * * * * * * * * * * * * * * * //

dimensions      [0 0 -1 0 0 0 0];

internalField   nonuniform List<scalar> 
124215
(
0.413857
2.25444
1.33079
0.499932
2.26293
1.32135
0.506058
2.25524
1.21873
2.19388
1.22104
2.32714
1.23017
2.2494
0.529401
1.34034
2.26555
0.492947
1.33081
2.2073
2.25435
1.36713
0.546358
2.31704
1.35658
0.514678
2.2541
1.37376
0.579365
2.16522
0.5949
1.45713
0.490155
1.26538
2.30475
0.613815
1.38058
2.30339
0.447966
1.26063
1.32965
0.546254
2.32434
1.36965
0.492661
0.46481
0.637548
0.701124
0.0560127
0.859333
0.44638
0.742213
2.33414
1.25912
1.19438
2.20216
0.627372
1.3118
1.34813
2.33125
0.490898
2.30885
1.38675
0.600773
0.509585
2.15684
0.123842
0.311116
4.67484
13.2464
4.39676
0.230522
1.30993
2.38413
1.36614
2.24174
2.14825
2.25696
0.579774
1.34197
2.13394
1.25714
0.683431
0.0393697
1.50075
0.737505
0.64849
7.77662
29.4669
59.6131
29.3099
6.81696
0.781235
0.336983
0.846649
1.47216
1.20711
1.18117
2.29301
0.526464
2.20876
1.32942
2.16584
2.13359
0.293104
0.660883
8.03376
37.5431
96.9167
175.356
108.67
34.4717
7.69731
1.07933
0.0924368
0.758492
2.39513
1.27326
1.19864
2.18045
1.24319
0.543862
2.1567
1.24599
0.34633
6.54959
32.959
106.417
246.985
428.877
327.103
104.925
32.7656
6.63509
0.79732
0.0819423
1.23674
0.0346304
2.25268
0.531662
2.3301
1.40259
0.088832
2.644
4.46663
27.6574
98.1337
279.759
636.317
977.216
777.566
256.823
89.3331
24.273
4.45914
0.262124
1.39224
2.36513
1.24994
2.24553
1.28187
0.487481
1.46887
1.21099
14.3132
62.0203
184.97
456.419
926.334
1510.63
1143.86
438.699
164.877
55.7007
13.1603
1.95407
0.658615
1.46885
0.410592
1.20894
0.309246
2.17156
2.27374
0.81069
12.8214
54.7443
149.471
333.922
775.092
1068.64
984.93
502.82
204.464
73.0915
19.3018
3.1438
2.46731
0.702219
1.41409
2.31963
1.2429
1.3163
0.782036
0.966384
4.38316
23.6009
77.7829
180.481
461.551
682.393
550.581
335.421
129.915
47.4975
12.0431
2.27797
0.356628
2.1541
0.439653
1.21281
0.33911
2.30431
1.43433
2.40603
1.02834
6.62199
25.6176
71.2103
181.891
324.862
293.027
164.963
62.0382
18.9068
5.39887
0.994211
0.227057
0.238474
1.38844
2.32264
1.29361
0.495742
0.515547
0.847668
1.56647
2.3584
8.34016
26.2178
74.7221
142.136
126.025
63.9795
21.9003
7.58286
2.20625
0.283125
1.5762
0.733116
0.442806
1.25523
2.25699
1.26381
2.26316
1.26597
0.00266351
0.379165
2.36293
8.21597
23.1925
55.5976
44.6588
18.8952
7.56912
2.3559
0.600581
0.364899
1.27124
2.2182
0.552697
1.32759
0.550609
2.27126
0.0106376
2.28975
1.33221
0.164433
0.381051
2.19974
5.88758
14.3197
11.4752
5.39034
2.21511
0.59495
1.31099
0.914223
2.24117
2.0402
2.19364
0.493966
2.19194
1.4051
0.620257
0.698359
0.2352
2.06303
0.0171646
0.201325
1.01938
2.47667
2.30152
1.09333
0.307022
0.3638
0.587735
2.17846
0.58282
0.617591
1.319
2.18859
0.431447
0.496896
2.25282
1.30213
1.35923
0.226249
1.51728
0.748004
1.69877
0.100178
0.842855
1.04066
0.899505
0.831181
2.07778
12.2408
0.540887
1.39727
2.32386
0.532934
2.18012
1.36927
0.606712
2.31375
1.19442
1.38443
0.604014
2.23638
1.36714
0.0925597
1.49384
2.22487
0.0140757
1.38385
2.35253
0.615904
1.39721
2.33644
0.589963
1.35252
0.474434
2.30939
1.38462
0.597548
2.30344
1.27039
0.520634
2.11078
0.511513
2.08002
0.49578
2.05708
2.12767
1.20214
2.25937
1.3257
2.32457
0.590142
1.39317
2.26247
1.31511
0.481587
2.26444
1.34298
0.538091
2.25873
1.31474
0.405908
1.30337
2.20772
1.29215
0.346666
0.40557
2.1731
0.565779
2.19577
0.53399
1.35271
2.26249
0.447501
8.41268
8.41863
8.43002
8.44277
8.45502
8.46049
8.459
8.44731
8.43351
8.42021
8.41882
8.43004
8.44536
8.45888
8.46208
8.45785
8.44592
8.43362
8.42222
8.41619
8.41885
8.42661
8.44194
8.46114
8.48304
8.50257
8.51741
8.52757
8.53419
8.53547
8.5292
8.52651
8.52434
8.51727
8.50458
8.48635
8.46501
8.44557
8.43034
8.42241
8.43043
8.44219
8.46674
8.50093
8.54294
8.57152
8.61474
8.67045
8.7339
8.79345
8.76952
8.72682
8.66972
8.61574
8.57324
8.54484
8.50431
8.47071
8.44599
8.43399
8.44355
8.46205
8.50119
8.54832
8.58988
8.67198
8.78132
8.9691
9.25551
9.84253
9.33317
9.11509
8.9442
8.77768
8.6723
8.59131
8.54999
8.50562
8.46593
8.44742
8.45625
8.48414
8.54297
8.58961
8.69178
8.87938
9.1993
9.92132
12.3893
17.5489
12.0633
10.2757
9.5915
9.15653
8.87278
8.69133
8.59071
8.54463
8.48751
8.45965
8.46179
8.50375
8.57139
8.67172
8.87866
9.31214
10.2643
14.3306
28.3389
51.2308
25.7212
14.3628
10.9941
9.83554
9.2664
8.8731
8.67155
8.57281
8.5069
8.46469
8.45991
8.51749
8.61411
8.77922
9.1887
10.2069
14.6816
33.0519
81.5461
156.021
74.9299
30.7341
15.3407
11.1163
9.81772
9.15089
8.77521
8.61486
8.5193
8.46184
8.4475
8.52641
8.66945
8.9574
9.78528
13.3371
30.3348
84.4202
210.46
399.208
191.124
75.9545
29.1783
14.5887
10.8266
9.56737
8.93936
8.66852
8.52643
8.44792
8.43047
8.52515
8.72657
9.15191
10.9679
20.8021
60.6458
175.373
429.918
892.153
355.82
141.512
49.884
20.6227
12.2519
10.0456
9.08995
8.72343
8.52521
8.43057
8.41579
8.52351
8.76175
9.23355
10.6581
15.8272
34.6686
88.2035
211.023
367.179
230.133
107.546
41.984
20.274
12.9242
10.3604
9.20958
8.76034
8.52314
8.41609
8.41337
8.51911
8.76007
9.21003
10.3708
13.0437
20.6396
41.9495
98.6011
177.244
127.707
65.3496
29.7607
17.3824
12.5513
10.3232
9.20546
8.76094
8.52317
8.41713
8.42752
8.521
8.72391
9.08716
9.99701
11.649
15.2777
23.713
42.7979
79.1546
62.3245
32.6807
20.5537
14.6664
11.5631
9.98557
9.08534
8.7246
8.52607
8.4326
8.44529
8.5232
8.66946
8.93822
9.54838
10.626
12.5814
16.536
23.0345
34.7303
29.3793
20.538
15.9626
12.495
10.6146
9.54725
8.93865
8.67095
8.52969
8.45165
8.46028
8.51806
8.61676
8.77656
9.14749
9.78329
10.7557
12.5848
15.0895
18.606
17.2725
14.6613
12.4976
10.7424
9.78057
9.14729
8.77731
8.61791
8.52441
8.46682
8.4645
8.50687
8.5745
8.67301
8.87111
9.25825
9.77791
10.6216
11.6094
12.689
12.5301
11.5605
10.6127
9.77857
9.25936
8.87229
8.67404
8.57598
8.51311
8.47055
8.46064
8.48889
8.54639
8.59263
8.69164
8.87163
9.14525
9.54593
9.98827
10.3337
10.3195
9.98411
9.54628
9.14661
8.87283
8.69299
8.5937
8.5478
8.4944
8.466
8.44899
8.46772
8.50678
8.55152
8.59197
8.67228
8.77506
8.93699
9.08464
9.20593
9.20448
9.08511
8.93842
8.77674
8.6739
8.59382
8.55291
8.51241
8.4727
8.45379
8.4361
8.44822
8.47286
8.50698
8.54597
8.57395
8.61569
8.66898
8.72376
8.76044
8.76112
8.72492
8.67061
8.61775
8.57562
8.54759
8.51244
8.47778
8.45271
8.44044
8.42449
8.43239
8.44813
8.46778
8.48894
8.50779
8.5194
8.52569
8.52408
8.52254
8.5236
8.52684
8.53019
8.5246
8.5132
8.49451
8.47268
8.45267
8.4367
8.42847
8.41856
8.42451
8.43602
8.44912
8.46099
8.46552
8.46209
8.44803
8.43072
8.41699
8.4181
8.43369
8.45227
8.46706
8.47074
8.46602
8.45379
8.44042
8.42846
8.42232
8.36719
8.36722
8.36794
8.36824
8.36948
8.36956
8.36948
8.36734
8.36479
8.36242
8.36286
8.36588
8.36912
8.37163
8.37179
8.37164
8.37027
8.36988
8.36909
8.36904
8.36722
8.36767
8.36909
8.37174
8.37589
8.38339
8.39051
8.40164
8.40826
8.41427
8.4142
8.40892
8.40323
8.39263
8.3856
8.37807
8.37378
8.37104
8.36954
8.36907
8.36793
8.36908
8.37361
8.38104
8.39746
8.4231
8.46198
8.51062
8.56152
8.59494
8.59403
8.56053
8.51086
8.46337
8.42482
8.3994
8.38294
8.37549
8.37091
8.36977
8.36825
8.37175
8.38107
8.40231
8.43956
8.514
8.60793
8.75916
8.89629
9.01134
8.99507
8.88328
8.75268
8.60684
8.51479
8.44119
8.40411
8.38293
8.37359
8.3701
8.36949
8.37587
8.3974
8.4394
8.5314
8.69652
8.95394
9.32988
9.76301
10.1944
10.0297
9.70853
9.30597
8.94438
8.6934
8.53148
8.44055
8.39907
8.37768
8.37136
8.36965
8.38344
8.42306
8.51379
8.69632
9.05999
9.54804
10.3788
11.8062
15.4261
12.2934
11.1059
10.26
9.51635
9.04883
8.69367
8.5141
8.42444
8.38523
8.37158
8.36968
8.39064
8.4617
8.6067
8.95096
9.54396
10.494
12.9312
21.3687
39.7335
20.8548
14.1731
11.8894
10.3466
9.50873
8.94002
8.60489
8.46263
8.3924
8.37175
8.36773
8.40184
8.50982
8.75537
9.32009
10.3555
12.7189
22.7811
51.4057
104.845
48.7641
22.8194
15.1267
11.8534
10.2436
9.29524
8.74962
8.50997
8.40356
8.36991
8.36533
8.40811
8.55881
8.8831
9.71498
11.3376
18.2594
45.2148
111.932
230.879
102.475
41.4051
19.3318
13.607
11.0174
9.67443
8.87467
8.55862
8.4099
8.36769
8.36324
8.41388
8.59024
8.97994
9.95939
11.7797
15.3879
25.955
59.7848
114.429
69.5061
35.8388
18.7909
14.6354
11.7032
9.93857
8.97464
8.59034
8.41572
8.36564
8.36388
8.41425
8.59005
8.974
9.94293
11.6947
14.6232
18.4488
33.4073
65.4696
53.4287
27.9821
17.5908
14.5487
11.6739
9.93406
8.97276
8.59105
8.4164
8.36646
8.36731
8.40982
8.55921
8.87333
9.67376
10.9819
13.4239
16.8232
18.8502
31.2832
27.4052
17.9171
16.737
13.3989
10.9728
9.67076
8.8731
8.56048
8.41192
8.36976
8.37079
8.40464
8.51112
8.74935
9.29257
10.2166
11.7571
14.5716
16.7848
17.9487
17.5183
16.7252
14.5601
11.7534
10.2154
9.29211
8.75012
8.51258
8.40657
8.37296
8.3733
8.39421
8.4644
8.60642
8.93962
9.50176
10.3049
11.7608
13.4047
14.5448
14.5211
13.3949
11.7549
10.3034
9.5009
8.94004
8.60728
8.46577
8.39589
8.3752
8.37338
8.38718
8.42616
8.51561
8.69257
9.04468
9.49718
10.2144
10.9769
11.6675
11.664
10.9725
10.2136
9.49905
9.04606
8.69395
8.51677
8.42756
8.38876
8.37509
8.37313
8.37955
8.40079
8.44238
8.5321
8.693
8.9377
9.28964
9.66807
9.93098
9.93212
9.66924
9.29123
8.93948
8.69421
8.53339
8.44362
8.40225
8.3811
8.37476
8.37169
8.3752
8.38434
8.40546
8.44177
8.51492
8.60507
8.7485
8.87221
8.97296
8.97242
8.87308
8.74999
8.60695
8.51661
8.44344
8.40701
8.38594
8.37681
8.37333
8.37124
8.37239
8.37685
8.38425
8.40037
8.42563
8.46366
8.51071
8.55931
8.59073
8.59137
8.56057
8.51247
8.46555
8.42742
8.40213
8.38592
8.37851
8.37404
8.3729
8.37042
8.37087
8.37225
8.37493
8.37903
8.38659
8.39371
8.40474
8.41092
8.41652
8.417
8.4122
8.40656
8.39575
8.38859
8.38096
8.37674
8.374
8.37258
8.37212
8.37036
8.37039
8.37109
8.37144
8.3727
8.37294
8.3731
8.37121
8.36886
8.36663
8.36714
8.37013
8.37305
8.37513
8.37497
8.37465
8.37327
8.37286
8.37211
8.37207
8.38835
8.38834
8.38883
8.38899
8.38994
8.39017
8.39052
8.38966
8.38874
8.38783
8.38809
8.38944
8.3908
8.39185
8.39152
8.39123
8.39019
8.38997
8.38945
8.38944
8.38833
8.38867
8.38978
8.39202
8.39561
8.40264
8.40964
8.42114
8.42857
8.43532
8.43535
8.42883
8.42183
8.41068
8.40377
8.39678
8.39314
8.39088
8.38975
8.3894
8.38876
8.38972
8.39357
8.40012
8.41488
8.43861
8.47507
8.5215
8.57016
8.60208
8.60087
8.56838
8.52041
8.47493
8.43894
8.41559
8.40094
8.3945
8.3907
8.38977
8.38887
8.3919
8.40006
8.41914
8.4529
8.52166
8.60808
8.74785
8.87066
8.97129
8.96623
8.86287
8.74189
8.60525
8.52051
8.45286
8.41957
8.40079
8.39276
8.3898
8.38971
8.39534
8.41459
8.45253
8.53673
8.68852
8.92443
9.26765
9.64344
9.91325
9.88845
9.61534
9.24893
8.91465
8.68339
8.53478
8.45199
8.4149
8.39602
8.39056
8.38985
8.40223
8.43808
8.52088
8.68809
9.02093
9.45797
10.1614
10.946
11.7533
11.6092
10.8408
10.1078
9.43407
9.00963
8.68321
8.51907
8.43781
8.40271
8.39064
8.39014
8.40903
8.47387
8.60566
8.92007
9.45065
10.2389
11.7543
13.699
15.5988
14.7134
13.2695
11.5771
10.1755
9.42493
8.9097
8.60179
8.47296
8.40934
8.39094
8.38925
8.42025
8.51914
8.74232
9.25531
10.1348
11.7101
14.8152
18.1209
24.6064
18.9597
16.6947
14.3153
11.5676
10.0885
9.2375
8.73588
8.51743
8.42042
8.39011
8.38835
8.42727
8.56586
8.85875
9.60947
10.8462
13.4119
17.7583
25.3025
47.7535
32.4501
18.832
16.4255
13.1487
10.783
9.58868
8.85112
8.5639
8.4275
8.38938
8.38756
8.43376
8.59596
8.95195
9.84776
11.486
14.3103
17.8742
29.2637
50.8174
49.1635
27.4885
17.3767
14.1912
11.4415
9.83063
8.94509
8.59431
8.43411
8.3887
8.3881
8.43401
8.59516
8.9469
9.83081
11.4255
14.1521
16.8864
25.0729
48.8588
48.0964
24.9476
16.8409
14.1256
11.4131
9.82418
8.94339
8.59442
8.43458
8.38928
8.38978
8.42824
8.56489
8.8514
9.58487
10.7599
13.0621
16.1788
17.1179
25.4099
24.5473
16.9912
16.1622
13.0582
10.756
9.58154
8.84944
8.56454
8.42886
8.39086
8.39136
8.42179
8.51853
8.73572
9.23286
10.0713
11.4954
14.1626
16.1642
16.9076
16.7875
16.1526
14.1655
11.4971
10.0696
9.23121
8.73483
8.51851
8.42237
8.39226
8.39253
8.41103
8.4743
8.60253
8.90721
9.41784
10.1415
11.5021
13.0611
14.1179
14.1047
13.0564
11.4992
10.1392
9.41594
8.9063
8.60206
8.47445
8.41156
8.39331
8.39223
8.4043
8.43894
8.51951
8.68018
9.00294
9.41288
10.0677
10.7542
11.4088
11.4054
10.7537
10.0674
9.41394
9.00319
8.68041
8.51957
8.4393
8.40489
8.39297
8.39197
8.39743
8.41597
8.45274
8.53372
8.68041
8.9049
9.22941
9.57908
9.82127
9.82087
9.57961
9.22997
8.90559
8.68059
8.53404
8.45306
8.41653
8.39811
8.39276
8.39095
8.39386
8.40154
8.41995
8.45204
8.51851
8.60053
8.73353
8.84812
8.94209
8.94204
8.84861
8.73431
8.60154
8.51932
8.45285
8.42068
8.40234
8.39468
8.39182
8.39076
8.39164
8.39521
8.40139
8.41538
8.43807
8.47297
8.51711
8.56347
8.59381
8.59408
8.56419
8.51812
8.47407
8.43907
8.41637
8.40231
8.39614
8.39256
8.39169
8.39024
8.39053
8.39147
8.3935
8.39673
8.40338
8.40994
8.42093
8.42793
8.43439
8.4347
8.42876
8.42211
8.41127
8.40464
8.39792
8.39459
8.39251
8.39154
8.39125
8.39025
8.3902
8.39056
8.39059
8.39135
8.39143
8.39174
8.39087
8.39005
8.38922
8.38956
8.3909
8.39211
8.39309
8.39275
8.39258
8.39172
8.39164
8.39124
8.39128
8.42424
8.42418
8.42458
8.42464
8.42548
8.42559
8.42581
8.42479
8.42371
8.42275
8.42314
8.42467
8.4262
8.42736
8.4271
8.42688
8.42592
8.42579
8.42533
8.42537
8.42417
8.42447
8.4255
8.42764
8.43109
8.43796
8.44467
8.45575
8.4627
8.46915
8.46936
8.4634
8.45688
8.44603
8.43931
8.43241
8.42886
8.42666
8.42559
8.42528
8.42452
8.42544
8.4292
8.43562
8.45014
8.47338
8.50895
8.55372
8.60042
8.63097
8.63071
8.60016
8.55387
8.50958
8.47417
8.4511
8.43659
8.43022
8.42647
8.42558
8.42453
8.42753
8.43557
8.45447
8.48757
8.55498
8.63832
8.77263
8.88803
8.98311
8.98043
8.88471
8.77012
8.6375
8.55489
8.48806
8.45515
8.43644
8.42848
8.42554
8.42528
8.43086
8.4499
8.48727
8.56973
8.71707
8.94437
9.27039
9.62087
9.86465
9.85712
9.61101
9.26259
8.94004
8.7147
8.56899
8.48727
8.45047
8.43167
8.42622
8.42534
8.43763
8.47298
8.55442
8.7169
9.03991
9.45427
10.1082
10.793
11.465
11.4371
10.7638
10.0888
9.44467
9.0348
8.71476
8.55368
8.47318
8.43832
8.42626
8.42556
8.44424
8.50813
8.63665
8.94146
9.44919
10.176
11.5217
13.0965
14.235
14.1775
13.0387
11.4792
10.1531
9.43801
8.93664
8.63489
8.508
8.44489
8.42656
8.42461
8.45523
8.55227
8.76921
9.26326
10.0946
11.5097
14.1623
16.2811
17.3103
16.9523
16.2024
14.1211
11.4795
10.0786
9.25587
8.76638
8.55181
8.4559
8.42574
8.42373
8.46209
8.59808
8.88157
9.60488
10.758
13.0337
16.1941
17.2709
28.063
26.9608
17.1947
16.1469
13.0095
10.743
9.5976
8.87864
8.59763
8.4629
8.42505
8.42302
8.46857
8.62785
8.97292
9.83716
11.394
14.0707
17.004
27.3732
49.6318
49.9428
26.4907
16.8544
14.0509
11.3831
9.83198
8.97045
8.62762
8.46947
8.42444
8.42369
8.46903
8.62779
8.97001
9.82845
11.3586
14.006
16.4398
24.243
49.3933
49.0833
24.2151
16.4919
14.0166
11.3638
9.82876
8.96942
8.62802
8.47001
8.42507
8.42544
8.46355
8.59853
8.87865
9.59525
10.7262
12.9542
16.0353
16.6162
24.4966
23.7338
16.5755
16.0577
12.9711
10.7318
9.59599
8.87843
8.59882
8.46443
8.42665
8.42707
8.45732
8.55311
8.76678
9.25373
10.0697
11.4394
14.0484
16.0358
16.5186
16.4492
16.0495
14.0695
11.4508
10.0726
9.25423
8.76682
8.55346
8.45806
8.42804
8.42823
8.44669
8.50957
8.63621
8.93595
9.43594
10.1356
11.4472
12.9631
14.0031
14.0011
12.9704
11.453
10.1376
9.43621
8.93612
8.63622
8.50991
8.44731
8.42906
8.42796
8.44004
8.47452
8.55457
8.71301
9.0311
9.43177
10.0682
10.7276
11.3615
11.3597
10.7308
10.0707
9.43437
9.03227
8.71373
8.55484
8.47498
8.44067
8.42872
8.42772
8.43318
8.45168
8.4883
8.56861
8.71331
8.93415
9.25164
9.59283
9.82626
9.82699
9.59466
9.25327
8.93551
8.71392
8.56914
8.48873
8.45229
8.43388
8.42851
8.42676
8.42966
8.43731
8.45572
8.48763
8.55364
8.63448
8.76528
8.87704
8.9687
8.96875
8.87794
8.76643
8.63575
8.55461
8.48853
8.45649
8.43813
8.43049
8.42763
8.42662
8.42748
8.43101
8.43716
8.45111
8.47369
8.50835
8.55198
8.59775
8.62756
8.62793
8.5986
8.55313
8.50955
8.47476
8.45213
8.4381
8.43194
8.4284
8.42756
8.42618
8.42643
8.4273
8.42929
8.43248
8.43912
8.44566
8.4566
8.46352
8.46992
8.47024
8.4644
8.45783
8.44703
8.44042
8.43369
8.43039
8.42835
8.42744
8.42718
8.42622
8.42613
8.42642
8.42638
8.42709
8.42715
8.42747
8.42664
8.42586
8.42505
8.42541
8.42673
8.42791
8.42884
8.4285
8.42834
8.42753
8.42751
8.42717
8.42725
8.4612
8.46115
8.46156
8.46163
8.46243
8.46251
8.46269
8.46163
8.46055
8.4596
8.46
8.46153
8.46305
8.46422
8.464
8.4638
8.46286
8.46272
8.46226
8.46229
8.46114
8.46145
8.46245
8.46455
8.46788
8.47448
8.48084
8.4914
8.49792
8.50407
8.50438
8.49881
8.49269
8.4823
8.47587
8.46919
8.46574
8.46358
8.46253
8.46221
8.4615
8.4624
8.46607
8.47228
8.48632
8.50863
8.54275
8.58544
8.63001
8.65912
8.65923
8.63048
8.58626
8.5438
8.50967
8.48738
8.47329
8.46708
8.4634
8.46251
8.46151
8.46444
8.47224
8.49053
8.52236
8.5871
8.66637
8.79408
8.90251
8.99249
8.99168
8.90218
8.79395
8.66696
8.58775
8.52319
8.49135
8.47314
8.46537
8.46248
8.46224
8.46765
8.4861
8.52209
8.60131
8.74209
8.95858
9.26732
9.59819
9.82667
9.82415
9.59661
9.26602
8.95802
8.74174
8.60147
8.52246
8.48679
8.46848
8.46316
8.46226
8.47417
8.50832
8.5867
8.74213
9.05097
9.44227
10.0568
10.6901
11.3237
11.3115
10.6854
10.0547
9.4417
9.05034
8.74204
8.58676
8.50879
8.47493
8.46318
8.46245
8.48049
8.54218
8.66528
8.95682
9.43895
10.1189
11.3766
12.8554
13.9268
13.9015
12.8474
11.3738
10.1165
9.43702
8.95602
8.66505
8.54254
8.48127
8.46345
8.46149
8.49105
8.58456
8.79226
9.26398
10.0508
11.3759
13.902
15.8918
16.6196
16.4786
15.8904
13.9144
11.3819
10.051
9.26338
8.79195
8.58492
8.49193
8.46264
8.46063
8.49764
8.62883
8.89976
9.59149
10.6784
12.8393
15.872
16.6053
27.5985
26.8197
16.6599
15.8845
12.8562
10.6849
9.59304
8.90009
8.62937
8.49869
8.46198
8.45995
8.50396
8.65773
8.98845
9.81611
11.2974
13.8659
16.5576
27.1941
51.4255
51.5858
26.0291
16.4774
13.8768
11.3045
9.81895
8.98903
8.65847
8.5051
8.46138
8.46063
8.5045
8.65802
8.98698
9.81171
11.2747
13.8259
16.1055
23.9916
50.6859
50.3334
23.8887
16.1841
13.8564
11.291
9.8175
8.98859
8.65898
8.50566
8.462
8.46234
8.49928
8.63003
8.89992
9.59072
10.6726
12.8157
15.8074
16.2477
24.0441
23.3445
16.2279
15.8483
12.8452
10.6853
9.59476
8.90112
8.63081
8.50028
8.46354
8.46393
8.49333
8.58621
8.79274
9.26258
10.0477
11.3601
13.8836
15.8171
16.1933
16.1489
15.8425
13.9159
11.3784
10.0543
9.26496
8.79358
8.58686
8.49412
8.46489
8.46509
8.48305
8.54415
8.66673
8.95657
9.43867
10.1102
11.3691
12.8322
13.8438
13.8458
12.8459
11.3808
10.1155
9.44085
8.95772
8.66717
8.54465
8.48369
8.4659
8.46484
8.47662
8.51018
8.58791
8.74126
9.04911
9.4353
10.0482
10.6797
11.29
11.2901
10.6855
10.0529
9.43921
9.0511
8.74242
8.58839
8.51072
8.47726
8.46558
8.46461
8.46995
8.48802
8.52363
8.60158
8.74163
8.95531
9.26191
9.59152
9.81609
9.81725
9.59415
9.26432
8.95722
8.74263
8.6023
8.52414
8.48865
8.47065
8.46538
8.46367
8.46652
8.47401
8.49197
8.52299
8.58707
8.66528
8.79187
8.89972
8.98827
8.98851
8.90092
8.79332
8.66675
8.58816
8.52395
8.49276
8.47482
8.46733
8.46451
8.46352
8.46437
8.46785
8.47386
8.48747
8.50941
8.54309
8.58537
8.62979
8.65869
8.65907
8.63069
8.58658
8.54432
8.51051
8.4885
8.47479
8.46876
8.46527
8.46443
8.46307
8.46333
8.4642
8.46616
8.46927
8.47574
8.48207
8.49269
8.4994
8.50561
8.50594
8.50027
8.49391
8.48342
8.47701
8.47046
8.46723
8.46522
8.46431
8.46404
8.4631
8.46302
8.46333
8.4633
8.46399
8.46405
8.46434
8.46352
8.46277
8.462
8.46234
8.46361
8.46476
8.46569
8.46536
8.46521
8.46441
8.46438
8.46403
8.4641
8.49855
8.4985
8.49889
8.49895
8.49972
8.49975
8.49988
8.49878
8.49768
8.49673
8.49713
8.49867
8.50021
8.50141
8.50124
8.50108
8.50017
8.50004
8.49959
8.49962
8.49848
8.49878
8.49976
8.5018
8.505
8.51136
8.51743
8.52754
8.5337
8.53959
8.53994
8.5347
8.52893
8.51896
8.5128
8.50633
8.50299
8.50088
8.49985
8.49954
8.49883
8.49971
8.50328
8.5093
8.5229
8.5444
8.57731
8.61829
8.66116
8.68913
8.68946
8.66206
8.61954
8.57866
8.54564
8.52406
8.51035
8.5043
8.50071
8.49984
8.49883
8.50169
8.50926
8.52701
8.55773
8.62026
8.69632
8.81898
8.92252
9.00882
9.00869
8.92355
8.82015
8.69778
8.62144
8.55884
8.52796
8.51021
8.50263
8.4998
8.49953
8.50479
8.52271
8.55751
8.63402
8.76955
8.97781
9.274
9.59146
9.80934
9.80924
9.59373
9.27605
8.97943
8.77049
8.63482
8.55818
8.52351
8.50565
8.50045
8.49952
8.51109
8.54417
8.61999
8.76972
9.06769
9.44278
10.0312
10.632
11.2375
11.2339
10.6378
10.0369
9.44684
9.06967
8.77095
8.62062
8.54488
8.51192
8.50045
8.49967
8.51715
8.57694
8.69565
8.97685
9.44067
10.0903
11.2925
12.7114
13.7457
13.7422
12.7286
11.3071
10.0971
9.44356
8.97839
8.69642
8.57768
8.51804
8.5007
8.49869
8.52733
8.61784
8.8182
9.27298
10.0295
11.2969
13.7386
15.6712
16.3556
16.2266
15.7031
13.7813
11.3185
10.0371
9.27599
8.81941
8.61877
8.52837
8.49987
8.49783
8.53366
8.66075
8.9218
9.58975
10.6319
12.7143
15.6665
16.373
27.7064
26.8793
16.387
15.7146
12.7522
10.648
9.59564
8.92399
8.66195
8.53491
8.4992
8.49716
8.53979
8.68882
9.00783
9.80697
11.2329
13.7284
16.2914
27.1538
53.1379
53.2218
25.8598
16.2278
13.756
11.2488
9.81414
9.01029
8.69022
8.54113
8.49861
8.49783
8.54039
8.68935
9.0072
9.80502
11.2167
13.7033
15.8924
23.9299
52.1614
51.7902
23.7678
15.9763
13.7431
11.2388
9.81389
9.01023
8.69085
8.54171
8.49923
8.49955
8.53543
8.66246
8.92365
9.59339
10.6373
12.7192
15.6556
16.0289
23.8676
23.1749
16.012
15.7052
12.7546
10.6537
9.59949
8.92583
8.66362
8.53654
8.50076
8.50114
8.52975
8.62007
8.82044
9.27604
10.0367
11.3058
13.768
15.6709
15.9816
15.9483
15.7012
13.8049
11.3274
10.0455
9.27969
8.82189
8.62096
8.53063
8.50211
8.50232
8.51982
8.57934
8.69839
8.97983
9.44741
10.097
11.3153
12.7397
13.7323
13.7363
12.7563
11.3299
10.1042
9.45087
8.98169
8.69917
8.57999
8.52051
8.50313
8.50209
8.51361
8.54633
8.62203
8.77095
9.0702
9.44466
10.0386
10.6478
11.2392
11.2401
10.6549
10.0445
9.4494
9.07279
8.77246
8.62268
8.54695
8.51427
8.50284
8.5019
8.50712
8.52478
8.55948
8.63537
8.77138
8.97899
9.2764
9.59632
9.8133
9.81477
9.59945
9.27932
8.9813
8.77268
8.63625
8.56008
8.52545
8.50783
8.50266
8.50098
8.50378
8.51111
8.52866
8.55888
8.62127
8.69718
8.82008
8.92451
9.01031
9.01065
8.92591
8.82174
8.69881
8.62247
8.5599
8.52949
8.51193
8.50458
8.50181
8.50084
8.50167
8.50509
8.51097
8.52426
8.54562
8.57841
8.61947
8.66266
8.69071
8.69112
8.66362
8.62074
8.57969
8.54675
8.5253
8.5119
8.50599
8.50256
8.50173
8.50039
8.50065
8.50151
8.50343
8.50646
8.51276
8.5189
8.52921
8.53569
8.54171
8.54204
8.53657
8.53044
8.52025
8.51404
8.50764
8.50449
8.50251
8.50162
8.50135
8.50042
8.50035
8.50065
8.50062
8.50129
8.50133
8.5016
8.50077
8.50001
8.49924
8.49958
8.50084
8.50199
8.50292
8.50262
8.50249
8.50171
8.50168
8.50134
8.5014
8.53625
8.5362
8.53658
8.53662
8.53736
8.53736
8.53746
8.53636
8.53527
8.53433
8.53472
8.53624
8.53776
8.53897
8.53882
8.53869
8.53783
8.53771
8.53727
8.5373
8.53619
8.53648
8.53742
8.53938
8.54245
8.54858
8.55438
8.5641
8.56998
8.57564
8.57601
8.57101
8.56552
8.55593
8.55003
8.54378
8.54056
8.53852
8.53752
8.53722
8.53652
8.53737
8.54083
8.54663
8.55976
8.58048
8.61224
8.6517
8.6931
8.72006
8.72048
8.69418
8.65316
8.61375
8.58181
8.56097
8.5477
8.54185
8.53835
8.53751
8.53651
8.53928
8.54659
8.56375
8.59337
8.65375
8.72697
8.84526
8.94487
9.02808
9.02826
8.94648
8.84706
8.72889
8.65524
8.59463
8.56477
8.54757
8.54021
8.53747
8.53718
8.54226
8.55959
8.59317
8.66706
8.7978
8.99891
9.28473
9.5916
9.80135
9.80196
9.59517
9.28814
9.00156
8.79944
8.66824
8.59403
8.56047
8.54314
8.5381
8.53715
8.54833
8.5803
8.65357
8.79805
9.08621
9.44818
10.0167
10.5953
11.181
11.1787
10.6033
10.0248
9.45407
9.08947
8.8
8.65456
8.58115
8.5492
8.53808
8.53727
8.55416
8.612
8.72657
8.99839
9.44668
10.074
11.2377
12.6203
13.6309
13.6274
12.6385
11.2554
10.0836
9.45161
9.0011
8.7279
8.61297
8.55511
8.5383
8.53629
8.56398
8.65151
8.84504
9.28483
10.0165
11.2429
13.6287
15.5272
16.1744
16.0505
15.5546
13.671
11.2672
10.0268
9.28948
8.84706
8.65275
8.56511
8.53747
8.53545
8.57007
8.69309
8.94513
9.59186
10.5981
12.624
15.5222
16.2002
27.7884
26.9539
16.1893
15.5683
12.6639
10.617
9.59964
8.94826
8.69468
8.57141
8.53681
8.53478
8.576
8.72031
9.02854
9.8021
11.1812
13.6179
16.098
27.1888
54.9413
54.995
25.807
16.0337
13.6486
11.2001
9.81119
9.03196
8.7221
8.57744
8.53623
8.53545
8.57663
8.72097
9.02836
9.80131
11.1681
13.5977
15.7259
23.9438
53.795
53.3809
23.7542
15.8045
13.6393
11.1921
9.81162
9.03215
8.72278
8.57803
8.53684
8.53713
8.57188
8.69507
8.94783
9.59747
10.6076
12.6358
15.5162
15.8543
23.8214
23.1235
15.8414
15.5674
12.6724
10.6255
9.60462
8.95059
8.69646
8.57305
8.53834
8.5387
8.56645
8.65404
8.84823
9.28997
10.0279
11.2589
13.6636
15.5329
15.8067
15.7793
15.5644
13.7016
11.2815
10.0377
9.29434
8.85005
8.6551
8.56737
8.53967
8.53988
8.55685
8.61464
8.73002
9.00306
9.45657
10.0864
11.2683
12.6568
13.6298
13.6345
12.6744
11.284
10.0945
9.46077
9.00536
8.73104
8.61539
8.55758
8.54069
8.53968
8.55088
8.58264
8.65612
8.8005
9.09106
9.45425
10.0304
10.6195
11.1933
11.1946
10.6272
10.0369
9.45943
9.09402
8.80224
8.6569
8.58331
8.55155
8.54042
8.53951
8.54459
8.56175
8.59543
8.66909
8.80098
9.0025
9.29098
9.6016
9.81157
9.81319
9.60497
9.29417
9.00505
8.80247
8.67009
8.5961
8.56245
8.5453
8.54027
8.53862
8.54135
8.54848
8.56554
8.59486
8.65543
8.729
8.84821
8.94935
9.0325
9.03289
8.95086
8.85
8.73072
8.65671
8.59592
8.56639
8.5493
8.54215
8.53944
8.53849
8.53931
8.54263
8.54834
8.56126
8.58198
8.61382
8.65363
8.69556
8.72276
8.72318
8.69655
8.65493
8.61513
8.58313
8.56231
8.54927
8.54353
8.54018
8.53937
8.53806
8.53831
8.53914
8.54101
8.54395
8.55007
8.556
8.56599
8.57224
8.57807
8.5784
8.57311
8.5672
8.55733
8.55132
8.54512
8.54206
8.54013
8.53926
8.539
8.53809
8.53801
8.53831
8.53827
8.53893
8.53895
8.5392
8.53836
8.53761
8.53685
8.53719
8.53843
8.53956
8.5405
8.54022
8.5401
8.53935
8.53932
8.53898
8.53905
8.57429
8.57424
8.57461
8.57463
8.57534
8.57532
8.5754
8.57431
8.57325
8.57232
8.5727
8.57419
8.57568
8.57687
8.57675
8.57664
8.57581
8.57571
8.57528
8.57532
8.57423
8.57451
8.57541
8.5773
8.58025
8.58616
8.59174
8.60112
8.60677
8.61223
8.6126
8.60779
8.60254
8.59328
8.5876
8.58156
8.57846
8.57649
8.57553
8.57524
8.57455
8.57536
8.57871
8.5843
8.59699
8.617
8.64774
8.68587
8.72595
8.75203
8.75248
8.72711
8.68741
8.6493
8.61838
8.59823
8.58537
8.57972
8.57633
8.57552
8.57453
8.5772
8.58427
8.60086
8.62947
8.68791
8.75866
8.87314
8.96942
9.04991
9.05023
8.97125
8.87519
8.76077
8.68954
8.63082
8.60192
8.58525
8.57813
8.57547
8.57517
8.58007
8.59685
8.6293
8.7008
8.82727
9.02213
9.29898
9.59669
9.79942
9.80036
9.6007
9.30288
9.02521
8.82924
8.70218
8.63026
8.59776
8.58095
8.57607
8.57512
8.58594
8.61686
8.68778
8.82757
9.10695
9.45774
10.0094
10.5691
11.1369
11.1355
10.5777
10.0181
9.46426
9.11076
8.82985
8.68895
8.61779
8.58683
8.57604
8.57524
8.59156
8.64757
8.7584
9.02183
9.45653
10.0652
11.1962
12.5455
13.5325
13.5303
12.5639
11.2142
10.0756
9.46223
9.02505
8.76001
8.64867
8.59253
8.57625
8.57426
8.60105
8.68581
8.87319
9.29955
10.0097
11.201
13.5345
15.3962
16.0145
15.896
15.423
13.5759
11.2253
10.0208
9.30486
8.87558
8.68722
8.60221
8.57542
8.57344
8.60693
8.72616
8.97012
9.59771
10.5728
12.5487
15.391
16.0465
27.8614
27.0231
16.0249
15.4366
12.5883
10.5923
9.60617
8.97365
8.72792
8.6083
8.57478
8.57278
8.61267
8.75256
9.05103
9.80142
11.139
13.522
15.9342
27.2392
56.8804
56.9038
25.8074
15.8689
13.5533
11.1585
9.8112
9.05487
8.75453
8.61415
8.5742
8.57343
8.6133
8.75328
9.05108
9.80126
11.1275
13.505
15.583
23.9797
55.5684
55.0986
23.7945
15.6559
13.546
11.1517
9.81201
9.0552
8.75524
8.61473
8.57479
8.57507
8.60873
8.72824
8.97321
9.60414
10.5838
12.5634
15.3894
15.7074
23.8465
23.1368
15.6992
15.4402
12.5995
10.602
9.6117
8.97623
8.72977
8.60994
8.57627
8.57662
8.60351
8.68848
8.87683
9.3056
10.0226
11.2195
13.5705
15.4062
15.6562
15.6325
15.4379
13.608
11.242
10.0328
9.31029
8.87884
8.68963
8.60446
8.57758
8.57778
8.59423
8.65032
8.76219
9.02728
9.46768
10.0797
11.2284
12.5835
13.5375
13.5423
12.6015
11.2443
10.0881
9.47221
9.0298
8.76335
8.65114
8.59498
8.57859
8.5776
8.58847
8.61928
8.6906
8.83065
9.11291
9.46563
10.0254
10.5961
11.1533
11.1548
10.6039
10.0321
9.47097
9.11606
8.83251
8.69146
8.61999
8.58915
8.57834
8.57746
8.58238
8.59904
8.6317
8.7032
8.83114
9.0269
9.30694
9.60881
9.81226
9.81396
9.61226
9.31025
9.02955
8.83274
8.70428
8.63241
8.59976
8.58309
8.5782
8.5766
8.57925
8.58616
8.60273
8.63116
8.68997
8.76131
8.87701
8.97507
9.0557
9.05613
8.97662
8.87885
8.76307
8.69129
8.63225
8.60358
8.58699
8.58004
8.57741
8.57648
8.57727
8.5805
8.58603
8.59858
8.61867
8.64959
8.6882
8.72892
8.7553
8.75573
8.72991
8.6895
8.65089
8.61982
8.59962
8.58695
8.58138
8.57812
8.57734
8.57606
8.5763
8.57711
8.57892
8.58177
8.58769
8.59343
8.60311
8.60915
8.6148
8.61512
8.61002
8.60431
8.59474
8.58893
8.58291
8.57995
8.57808
8.57723
8.57698
8.57609
8.57601
8.5763
8.57626
8.57689
8.5769
8.57713
8.57631
8.57557
8.57482
8.57514
8.57636
8.57747
8.5784
8.57814
8.57804
8.57731
8.57729
8.57696
8.57703
8.61268
8.61263
8.61298
8.61299
8.61367
8.61364
8.61371
8.61264
8.61161
8.6107
8.61107
8.61251
8.61396
8.61513
8.61502
8.61494
8.61414
8.61405
8.61364
8.61368
8.61262
8.61288
8.61375
8.61557
8.61841
8.62412
8.6295
8.63857
8.64402
8.6493
8.64966
8.64502
8.63996
8.631
8.62552
8.61969
8.6167
8.61481
8.61388
8.6136
8.61293
8.61371
8.61694
8.62233
8.63461
8.65395
8.68374
8.72065
8.75953
8.78478
8.78524
8.76069
8.7222
8.68531
8.65533
8.63583
8.62339
8.61793
8.61465
8.61387
8.6129
8.61548
8.6223
8.63835
8.66602
8.72264
8.79115
8.90212
8.99542
9.07339
9.07377
8.99729