/*--------------------------------*- C++ -*----------------------------------*\
| =========                 |                                                 |
| \\      /  F ield         | OpenFOAM: The Open Source CFD Toolbox           |
|  \\    /   O peration     | Version:  2412                                  |
|   \\  /    A nd           | Website:  www.openfoam.com                      |
|    \\/     M anipulation  |                                                 |
\*---------------------------------------------------------------------------*/
FoamFile
{
    version     2.0;
    format      ascii;
    arch        "LSB;label=32;scalar=64";
    class       volScalarField;
    location    "502";
    object      p;
}
// * * * * * * * * * * * * * * * * * * * * * * * * * * * * * * * * * * * * * //

dimensions      [0 2 -2 0 0 0 0];

internalField   nonuniform List<scalar> 
231232
(
1.7582
4.91826
7.48993
10.0507
12.6597
15.3254
18.0166
20.6568
23.1323
25.3018
27.0136
28.1297
28.5515
28.2403
27.2261
25.6003
23.4954
21.0602
18.4353
15.7355
13.0394
10.3805
7.75302
5.09925
1.82432
4.91569
12.743
19.2302
25.7963
32.5183
39.4236
46.4307
53.338
59.8435
65.5678
70.0993
73.0602
74.1783
73.3474
70.651
66.3416
60.7834
54.3806
47.5111
40.4803
33.4955
26.6449
19.9074
13.2133
5.10133
7.47895
19.2118
28.9821
38.9422
49.2104
59.8403
70.7112
81.5098
91.7539
100.826
108.045
112.777
114.562
113.219
108.893
102.013
93.192
83.1006
72.3552
61.4438
50.6899
40.2247
30.0044
19.9222
7.76191
10.0232
25.7387
38.8924
52.4042
66.4595
81.1523
96.3291
111.555
126.135
139.156
149.588
156.455
159.041
157.065
150.755
140.785
128.103
113.724
98.562
83.3224
68.4552
54.1295
40.2649
26.6914
10.4028
12.6056
32.3957
49.0717
66.357
84.5308
103.75
123.84
144.234
163.985
181.804
196.2
205.727
209.309
206.523
197.72
183.918
166.526
147.022
126.697
106.514
87.0623
68.538
50.8019
33.5946
13.083
15.2332
39.2062
59.5673
80.8859
103.57
127.87
153.611
180.091
206.066
229.776
249.115
261.994
266.83
262.997
251.026
232.424
209.234
183.547
157.133
131.26
106.66
83.5373
61.6641
40.6557
15.8098
17.8742
46.0869
70.2553
95.8318
123.392
153.323
185.479
219.032
252.403
283.255
308.689
325.748
332.147
326.982
311.034
286.488
256.249
223.202
189.702
157.364
127.057
98.9629
72.7228
47.7883
18.55
20.4524
52.8369
80.8225
110.758
143.429
179.4
218.603
260.107
301.983
341.217
373.93
396.042
404.335
397.528
376.743
345.076
306.545
265.021
223.546
184.102
147.67
114.365
83.6543
54.7843
21.2247
22.8558
59.1581
90.7921
124.977
162.737
204.861
251.402
301.377
352.513
401.065
442.014
469.916
480.385
471.663
445.31
405.563
357.797
307.03
257.052
210.202
167.529
129.034
93.9663
61.3352
23.7179
24.946
64.6787
99.5578
137.589
180.046
227.961
281.554
339.84
400.251
458.323
507.834
541.829
554.597
543.828
511.593
463.428
406.213
346.177
287.85
233.88
185.33
142.045
103.033
67.0568
25.8863
26.576
68.999
106.456
147.588
193.892
246.63
306.199
371.654
440.215
506.798
564.08
603.665
618.548
605.881
568.235
512.417
446.744
378.56
313.025
253.018
199.572
152.362
110.17
71.5355
27.5777
27.6131
71.7554
110.876
154.029
202.87
258.83
322.441
392.812
467.036
539.614
602.431
646.028
662.434
648.396
606.86
545.588
473.954
400.103
329.624
265.53
208.813
159.012
114.746
74.3955
28.655
27.9649
72.6919
112.382
156.231
205.953
263.039
328.076
400.193
476.446
551.188
616.015
661.078
678.042
663.505
620.554
557.301
483.516
407.634
335.397
269.861
211.997
161.295
116.312
75.3715
29.022
27.5982
71.7167
110.816
153.947
202.763
258.695
322.277
392.616
466.809
539.358
602.153
645.74
662.148
648.125
606.614
545.372
473.771
399.951
329.5
265.432
208.736
158.954
114.704
74.3683
28.6445
26.5473
68.9248
106.342
147.431
193.688
246.375
305.888
371.285
439.788
506.319
563.562
603.128
618.015
605.376
567.774
512.013
446.399
378.272
312.791
252.83
199.425
152.25
110.09
71.4834
27.5575
24.9059
64.575
99.3991
137.371
179.764
227.61
281.128
339.336
399.673
457.677
507.138
541.108
553.882
543.149
510.972
462.88
405.742
345.783
287.527
233.619
185.126
141.889
102.92
66.9835
25.8579
22.8072
59.0328
90.6009
124.716
162.401
204.444
250.9
300.788
351.839
400.317
441.212
469.087
479.563
470.879
444.59
404.924
357.245
306.564
256.667
209.89
167.282
128.845
93.8294
61.246
23.6832
20.3988
52.6988
80.6125
110.473
143.063
178.95
218.063
259.478
301.269
340.429
373.089
395.175
403.475
396.706
375.985
344.397
305.954
264.518
223.128
183.761
147.398
114.156
83.5024
54.685
21.1861
17.8189
45.9447
70.0398
95.54
123.021
152.868
184.937
218.404
251.695
282.479
307.864
324.901
331.307
326.177
310.287
285.815
255.659
222.696
189.278
157.016
126.779
98.7474
72.5654
47.6851
18.5098
15.1793
39.068
59.3584
80.6043
103.213
127.436
153.097
179.499
205.403
229.053
248.35
261.21
266.051
262.249
250.329
231.792
208.676
183.065
156.726
130.924
106.389
83.3273
61.5101
40.5545
15.7703
12.556
32.2686
48.8801
66.0997
84.2063
103.357
123.378
143.705
163.395
181.164
195.525
205.036
208.623
205.862
197.101
183.355
166.026
146.587
126.328
106.207
86.8142
68.3443
50.6594
33.5006
13.0463
9.98028
25.6289
38.7273
52.1831
66.1816
80.8169
95.9366
111.107
125.638
138.619
149.024
155.879
158.469
156.513
150.237
140.311
127.679
113.354
98.2462
83.0587
68.2409
53.9616
40.1409
26.6095
10.3708
7.44487
19.1246
28.8511
38.7671
48.991
59.5764
70.4035
81.1604
91.3674
100.409
107.608
112.331
114.119
112.791
108.49
101.643
92.8604
82.8098
72.1058
61.2347
50.5193
40.0906
29.9052
19.8566
7.73629
4.89231
12.6826
19.1393
25.675
32.3666
39.2416
46.219
53.0983
59.579
65.2832
69.8012
72.756
73.8762
73.0552
70.3754
66.088
60.5553
54.1799
47.3384
40.3351
33.3767
26.5513
19.838
13.1675
5.08361
1.74968
4.8944
7.4537
10.0023
12.5992
15.2529
17.9324
20.5617
23.0275
25.1892
26.8957
28.0094
28.4319
28.1246
27.1168
25.4995
23.4045
20.9801
18.3662
15.6772
12.9916
10.3429
7.72512
5.08099
1.81781
4.69051
9.07687
13.3837
17.925
22.5454
27.2817
32.0722
36.7784
41.1977
45.0765
48.1418
50.1435
50.902
50.3469
48.5327
45.6252
41.8647
37.519
32.8406
28.034
23.2419
18.531
13.8678
9.42101
4.87191
9.07163
13.9607
20.0775
26.8112
33.6953
40.8279
48.1005
55.2977
62.1032
68.1151
72.892
76.0232
77.2101
76.3354
73.4911
68.9544
63.121
56.4249
49.2672
41.9679
34.7497
27.7294
20.8132
14.4964
9.42525
13.3623
20.0561
28.8185
38.5509
48.5771
59.0625
69.8526
80.6289
90.9084
100.062
107.382
112.201
114.025
112.662
108.266
101.297
92.4021
82.2775
71.5532
60.7189
50.1049
39.8788
29.8809
20.8305
13.8851
17.8728
26.7466
38.4989
51.6569
65.3439
79.8087
94.8569
110.051
124.699
137.868
148.486
155.511
158.167
156.148
149.704
139.565
126.742
112.296
97.1629
82.0458
67.3998
53.4384
39.9209
27.7817
18.5732
22.4438
33.5596
48.4325
65.2374
82.9234
101.849
121.796
142.204
162.132
180.262
195.024
204.856
208.569
205.69
196.614
182.468
164.774
145.092
124.746
104.697
85.5281
67.4858
50.2218
34.8594
23.3238
27.1098
40.5891
58.7786
79.5327
101.663
125.676
151.356
178.024
204.449
228.821
248.898
262.376
267.46
263.436
250.912
231.6
207.758
181.617
155.004
129.175
104.847
82.2687
60.9483
42.1608
28.1725
31.8076
47.7243
69.3788
94.3416
121.334
151.058
183.348
217.425
251.74
283.876
310.702
328.876
335.732
330.194
313.195
287.297
255.785
221.785
187.741
155.244
125.12
97.5788
71.9358
49.5708
33.0536
36.3993
54.7503
79.9143
109.225
141.37
177.307
216.978
259.553
303.162
344.681
379.843
403.916
413.004
405.521
382.867
348.801
307.997
264.722
222.144
182.195
145.764
112.962
82.8541
56.8664
37.824
40.6854
61.3551
89.9073
123.496
160.837
203.192
250.691
302.523
356.534
408.832
453.806
484.945
496.722
486.858
457.392
413.685
362.181
308.51
256.627
208.768
165.817
127.711
93.2092
63.724
42.2765
44.4179
67.1448
98.7397
136.237
178.43
226.921
282.084
343.215
407.957
471.677
527.303
566.26
581.032
568.481
531.446
477.244
414.384
349.974
288.735
233.126
183.941
140.878
102.362
69.7358
46.1542
47.3321
71.6909
105.724
146.399
192.612
246.287
308.063
377.405
451.854
526.164
591.904
638.412
656.094
640.906
596.538
532.352
458.948
384.814
315.307
253.006
198.552
151.381
109.601
74.4577
49.1827
49.1881
74.5988
110.214
152.976
201.865
259.041
325.359
400.439
481.801
563.804
637.023
689.182
709.05
691.872
642.006
570.43
489.36
408.294
333.006
266.107
208.09
158.184
114.259
77.4807
51.1133
49.8175
75.5877
111.747
155.23
205.052
263.46
331.393
408.534
492.408
577.239
653.233
707.502
728.191
710.272
658.356
584.039
500.151
416.566
339.198
270.661
211.388
160.525
115.856
78.5137
51.7712
49.1604
74.5565
110.152
152.89
201.752
258.898
325.182
400.224
481.548
563.515
636.705
688.85
708.722
691.564
641.73
570.193
489.161
408.132
332.876
266.004
208.01
158.124
114.216
77.4514
51.0938
47.279
71.61
105.604
146.235
192.398
246.016
307.73
377.003
451.382
525.627
591.318
637.8
655.489
640.337
596.027
531.91
458.576
384.508
315.06
252.81
198.399
151.266
109.517
74.4014
49.1453
44.3436
67.032
98.574
136.01
178.135
226.55
281.629
342.672
407.325
470.963
526.527
565.453
580.233
567.727
530.765
476.65
413.88
349.556
288.395
232.855
183.729
140.717
102.245
69.6568
46.1016
40.5956
61.2191
89.7083
123.224
160.486
202.755
250.159
301.892
355.806
408.017
452.926
484.033
495.819
486.002
456.613
412.999
361.594
308.019
256.225
208.445
165.563
127.516
93.0679
63.628
42.2123
36.3002
54.6008
79.6962
108.929
140.99
176.836
216.411
258.887
302.4
343.834
378.934
402.978
412.075
404.636
382.055
348.081
307.375
264.196
221.71
181.843
145.485
112.748
82.6977
56.7596
37.7525
31.7053
47.5706
69.1556
94.0397
120.949
150.585
182.783
216.766
250.993
283.053
309.823
327.972
334.836
329.337
312.404
286.589
255.168
221.259
187.302
154.885
124.834
97.3576
71.7739
49.4599
32.9792
27.0102
40.4399
58.5627
79.2421
101.295
125.226
150.823
177.407
203.754
228.061
248.091
261.547
266.639
262.648
250.181
230.941
207.179
181.12
154.585
128.83
104.57
82.0534
60.79
42.052
28.0993
22.3521
33.4225
48.2347
64.9723
82.5893
101.444
121.318
141.655
161.517
179.593
194.317
204.132
207.85
204.999
195.97
181.883
164.257
144.644
124.367
104.382
85.2741
67.2873
50.0754
34.7584
23.2558
17.7934
26.6278
38.328
51.4286
65.0573
79.4624
94.4507
109.587
124.183
137.309
147.896
154.908
157.569
155.572
149.164
139.073
126.304
111.915
96.8378
81.7749
67.1798
53.2658
39.7931
27.6934
18.5138
13.2992
19.9614
28.6824
38.3696
48.3502
58.7894
69.5337
80.2661
90.5063
99.6274
106.926
111.735
113.563
112.216
107.847
100.913
92.0585
81.9769
71.2958
60.5035
49.9293
39.7406
29.7783
20.7595
13.8374
9.02685
13.8918
19.9785
26.6795
33.5309
40.6305
47.8707
55.0372
61.8154
67.8052
72.567
75.6914
76.8806
76.0169
73.1911
68.6787
62.8735
56.2074
49.0803
41.8109
34.6213
27.6281
20.7378
14.4443
9.39118
4.66692
9.03111
13.3164
17.8352
22.4332
27.1473
31.9161
36.6018
41.003
44.8673
47.9227
49.92
50.6798
50.1318
48.3295
45.4378
41.6958
37.3701
32.712
27.9256
23.153
18.4608
13.8157
9.38583
4.85377
8.81703
13.1702
19.299
25.6981
32.2146
38.9478
45.7779
52.5043
58.8355
64.4058
68.8182
71.7062
72.8051
72.0105
69.4026
65.2255
59.8311
53.6088
46.923
40.0685
33.2525
26.6037
20.0262
13.6894
9.16863
13.1602
13.5021
19.566
25.7522
32.1358
38.908
45.8882
52.8684
59.5354
65.4804
70.2448
73.3909
74.5943
73.7255
70.8856
66.3754
60.6171
54.0624
47.1203
40.1097
33.2469
26.7256
20.3553
14.0689
13.6974
19.2632
19.5424
28.5075
37.6061
47.0869
57.2509
67.8391
78.5442
88.8787
98.1855
105.706
110.699
112.608
111.209
106.679
99.5403
90.5098
80.337
69.6814
59.0407
48.7361
39.0467
29.6734
20.3745
20.055
25.6148
25.682
37.5484
49.694
62.5031
76.4119
91.0967
106.148
120.876
134.308
145.278
152.615
155.415
153.317
146.616
136.163
123.098
108.576
93.5777
78.8098
64.7025
51.6082
39.0935
26.7825
26.671
32.0562
31.9893
46.9275
62.387
78.9268
97.1554
116.711
137.088
157.355
176.127
191.664
202.149
206.147
203.076
193.424
178.553
160.24
140.218
119.888
100.206
81.7088
64.7966
48.8654
33.3656
33.3803
38.6828
38.6514
56.9392
76.1123
96.9545
120.299
145.794
172.856
200.281
226.143
247.886
262.722
268.376
263.92
250.15
229.241
203.936
176.787
149.749
124.068
100.368
79.0525
59.2933
40.3175
40.2821
45.3731
45.4847
67.3193
90.5372
116.21
145.47
178.047
213.34
249.861
285.01
315.101
335.904
343.84
337.425
317.959
288.888
254.392
218.164
182.855
150.011
120.293
94.0306
70.1023
47.4469
47.2491
51.927
52.2815
77.7595
105.249
136.181
172.072
212.846
257.984
305.759
352.782
393.872
422.712
433.741
424.613
397.418
357.55
311.266
263.783
218.563
177.42
140.951
109.303
80.972
54.5373
54.0735
58.0575
58.7323
87.7771
119.563
155.939
198.896
248.689
305.033
366.074
427.592
482.534
521.756
536.817
524.086
486.849
433.331
372.626
311.849
255.335
205.053
161.384
124.159
91.4004
61.2664
60.457
63.4073
64.4374
96.7275
132.519
174.112
224.03
282.985
351.095
426.562
504.408
575.512
627.17
647.114
629.955
580.629
511.141
434.155
358.902
290.515
230.942
180.177
137.606
100.718
67.2181
66.0281
67.592
68.9518
103.873
142.982
188.997
244.96
312.09
391.027
480.196
574.109
661.64
726.276
751.365
729.487
667.501
581.745
488.714
399.694
320.373
252.501
195.571
148.467
108.158
71.9292
70.3875
70.2609
71.856
108.5
149.818
198.828
258.964
331.859
418.613
517.941
624.098
724.489
799.472
828.689
803.003
730.901
632.392
527.122
427.885
340.663
266.935
205.746
155.569
112.981
74.9631
73.1704
71.1661
72.8458
110.084
152.17
202.235
263.857
338.833
428.447
531.551
642.335
747.654
826.638
857.458
830.303
754.295
650.899
541.002
437.962
347.843
271.998
209.287
158.025
114.64
76.0028
74.1193
70.2192
71.8105
108.431
149.721
198.701
258.799
331.65
418.351
517.622
623.722
724.067
799.026
828.25
802.599
730.549
632.099
526.885
427.697
340.516
266.821
205.659
155.504
112.934
74.9324
73.1414
67.5122
68.8649
103.74
142.8
188.756
244.65
311.7
390.543
479.611
573.426
660.877
725.473
750.574
728.755
666.86
581.206
488.274
399.342
320.095
252.285
195.405
148.342
108.068
71.8702
70.3317
63.2959
64.3167
96.5446
132.269
173.784
223.611
282.46
350.453
425.795
503.522
574.532
626.144
646.101
629.012
579.795
510.431
433.568
358.427
290.137
230.645
179.948
137.433
100.592
67.1354
65.9497
57.9229
58.5875
87.5586
119.265
155.552
198.407
248.084
304.303
365.213
426.61
481.459
520.635
535.71
523.048
485.92
432.53
371.954
311.299
254.892
204.701
161.11
123.95
91.2484
61.1661
60.3614
51.7785
52.1229
77.5214
104.927
135.767
171.552
212.211
257.227
304.878
351.79
392.795
421.595
432.637
423.57
396.475
356.726
310.567
263.202
218.089
177.041
140.653
109.074
80.8042
54.4262
53.967
45.2201
45.3224
67.0768
90.2112
115.794
144.954
177.423
212.604
249.016
284.067
314.088
334.857
342.804
336.442
317.06
288.094
253.708
217.59
182.381
149.628
119.989
93.7957
69.9292
47.3318
47.1382
38.5339
38.4943
56.7056
75.8002
96.559
119.813
145.212
172.177
199.509
225.291
246.976
261.784
267.448
263.034
249.334
228.513
203.302
176.248
149.3
123.702
100.076
78.8245
59.1244
40.2047
40.1731
31.9191
31.845
46.7139
62.1031
78.5694
96.7193
116.193
136.489
156.68
175.388
190.879
201.343
205.348
202.311
192.715
177.914
159.68
139.737
119.483
99.8725
81.4406
64.5866
48.7091
33.2608
33.279
25.4957
25.5563
37.363
49.4486
62.1958
76.0394
90.6577
105.644
120.312
133.694
144.629
151.95
154.756
152.683
146.026
135.627
122.624
108.166
93.2302
78.5216
64.4692
51.4245
38.9563
26.6902
26.5822
19.1681
19.441
28.3583
37.4091
46.8414
56.9547
67.4918
78.1477
88.4374
97.7073
105.202
110.184
112.097
110.716
106.218
99.1201
90.1357
80.0113
69.4038
58.8092
48.5478
38.8978
29.5619
20.2993
19.9834
13.0924
13.4294
19.4599
25.6124
31.962
38.6992
45.6445
52.5913
59.2282
65.1487
69.8963
73.0348
74.2408
73.3845
70.5654
66.0823
60.355
53.8331
46.924
39.9452
33.1126
26.6191
20.2754
14.0145
13.646
8.77109
13.1004
19.1967
25.5623
32.0454
38.745
45.5422
52.2376
58.5414
64.0895
68.4867
71.3679
72.4689
71.685
69.0954
64.9425
59.5762
53.3841
46.7292
39.9052
33.1186
26.4977
19.9471
13.6359
9.13328
13.6694
16.1688
24.1243
31.8036
39.7186
47.9733
56.3752
64.6845
72.5373
79.4735
84.9888
88.6121
89.9994
89.0145
85.761
80.5552
73.8491
66.1377
57.88
49.4452
41.0821
32.9965
25.0907
16.8453
14.2362
16.1523
10.8367
17.2337
21.9798
27.2143
32.9444
38.9473
45.0708
51.0273
56.4304
60.8279
63.7705
64.9149
64.1212
61.4974
57.3614
52.1465
46.2994
40.2091
34.1711
28.3466
22.975
18.0589
11.3833
16.8586
24.0719
17.2107
27.5997
35.4675
44.197
53.7838
63.9123
74.3394
84.5786
93.951
101.638
106.807
108.812
107.388
102.744
95.4832
86.4134
76.3452
65.9633
55.7693
46.0222
37.0639
28.916
18.0777
25.133
31.6862
21.9082
35.4011
45.6026
57.1345
70.0246
83.8925
98.4374
112.986
126.538
137.822
145.489
148.459
146.287
139.336
128.624
115.465
101.126
86.6214
72.6484
59.5322
47.6901
37.118
23.0333
33.0912
39.5001
27.0639
44.0157
57.0058
71.9583
88.9846
107.683
127.712
148.179
167.638
184.132
195.479
199.869
196.55
186.154
170.401
151.434
131.209
111.199
92.3366
74.999
59.6369
46.1697
28.4691
41.2585
47.6122
32.6803
53.431
69.6928
88.7624
110.911
135.791
163.079
191.646
219.453
243.521
260.329
266.833
261.747
246.179
223.05
195.834
167.527
140.215
115.086
92.5172
72.9181
56.0563
34.3863
49.7365
55.8275
38.5306
63.3243
83.2713
107.126
135.428
168.017
204.703
244.163
283.622
318.621
343.506
353.155
345.36
322.068
288.232
249.459
210.25
173.463
140.509
111.651
87.1261
66.4411
40.5483
58.3218
63.9068
44.4624
73.4505
97.4349
126.697
162.191
204.135
252.682
306.467
361.887
412.414
449.113
463.406
451.513
416.831
367.712
313.055
259.475
210.709
168.247
132.032
101.94
77.067
46.7943
66.7646
71.4918
50.1915
83.3272
111.513
146.58
190.06
242.798
305.604
377.375
453.718
525.467
578.839
599.773
581.898
531.034
460.947
385.41
313.75
250.561
197.117
152.729
116.659
87.4286
52.8258
74.6913
78.1338
55.3403
92.2891
124.522
165.344
217.007
281.228
359.839
452.43
554.113
652.697
727.986
757.806
731.792
659.543
562.857
461.978
369.357
290.161
225.024
172.256
130.256
96.8297
58.2463
81.6335
83.3452
59.4717
99.542
135.219
181.072
240.099
315.011
408.896
522.472
650.831
779.188
879.7
919.924
884.261
787.299
661.027
533.425
419.649
324.969
248.936
188.624
141.44
104.44
62.597
87.0828
86.6764
62.1568
104.288
142.307
191.648
255.9
338.605
443.973
573.862
723.803
877.165
999.503
1048.82
1004.66
886.262
735.109
585.86
455.621
349.291
265.309
199.638
148.856
109.424
65.4281
90.5699
87.8066
63.0753
105.918
144.762
195.347
261.488
347.057
456.722
592.845
751.232
914.599
1045.79
1098.81
1051.21
924.118
763.006
605.276
468.737
358.036
271.125
203.509
151.439
111.148
66.4031
91.7598
86.621
62.1087
104.208
142.196
191.498
255.7
338.342
443.631
573.427
723.268
876.543
998.834
1048.17
1004.07
885.771
734.718
585.558
455.391
349.117
265.178
199.54
148.784
109.372
65.397
90.5319
83.2393
59.3803
99.3903
135.01
180.792
239.727
314.527
408.275
521.691
649.884
778.099
878.533
918.777
883.225
786.423
660.322
532.873
419.223
324.644
248.69
188.439
141.303
104.34
62.5374
87.0098
77.9861
55.2142
92.0805
124.236
164.965
216.512
280.59
359.034
451.436
552.929
651.353
726.559
756.403
730.51
658.443
561.953
461.257
368.792
289.724
224.689
172.002
130.066
96.6907
58.1632
81.5309
71.3138
50.0412
83.0797
111.178
146.139
189.491
242.078
304.711
376.295
452.455
524.056
577.353
598.308
580.545
529.852
459.956
384.604
313.107
250.055
196.724
152.428
116.432
87.2613
52.7253
74.5663
63.7108
44.2991
73.1829
97.0758
126.23
161.597
203.395
251.781
305.397
360.657
411.059
447.697
462.007
450.209
415.673
366.723
312.234
258.809
210.176
167.827
131.707
101.692
76.8831
46.6834
66.6256
55.6259
38.3646
63.0535
82.9113
106.663
134.846
167.304
203.847
243.163
282.492
317.39
342.228
351.892
344.172
320.998
287.303
248.675
209.602
172.938
140.09
111.322
86.8731
66.252
40.4338
58.1771
47.4163
32.5204
53.1715
69.3506
88.3264
110.369
135.136
162.305
190.754
218.457
242.448
259.22
265.736
260.708
245.232
222.216
195.12
166.928
139.722
114.688
92.2017
72.6735
55.8721
34.2743
49.5943
39.3197
26.9177
43.7792
56.6961
71.5673
88.504
107.107
127.04
147.414
166.793
183.228
194.548
198.948
195.673
185.347
169.683
150.81
130.679
110.758
91.9767
74.7113
59.412
45.9995
28.3652
41.1261
31.5292
21.7804
35.1958
45.3352
56.7991
69.6158
83.4076
97.8764
112.354
125.845
137.086
144.733
147.71
145.571
138.673
128.027
114.941
100.677
86.244
72.3374
59.2816
47.493
36.9681
22.9412
32.9748
23.9452
17.1053
27.4314
35.249
43.9244
53.4537
63.5236
73.8933
84.0793
93.4074
101.063
106.219
108.228
106.827
102.222
95.0101
85.995
75.9832
65.6566
55.5147
45.8157
36.9007
28.7916
18.0008
25.0383
16.0638
10.7674
17.1237
21.8377
27.0381
32.7319
38.6981
44.7859
50.7098
56.086
60.4647
63.399
64.5465
63.767
61.1665
57.0604
51.8793
46.0674
40.0118
34.0067
28.2128
22.8687
17.9774
11.3326
16.7919
13.5951
16.077
23.9871
31.6227
39.4938
47.7037
56.0617
64.3294
72.1451
79.0511
84.5458
88.1598
89.5501
88.5798
85.3513
80.1782
73.5102
65.8395
57.6232
49.229
40.9049
32.8559
24.985
16.7751
14.1791
19.0419
18.045
28.0555
36.4
45.322
54.681
64.243
73.7533
82.7882
90.8107
97.2232
101.458
103.094
101.964
98.1932
92.1672
84.43
75.5685
66.1196
56.515
47.0204
37.888
29.2769
18.8682
19.8718
18.0197
6.75795
13.7026
16.2485
20.0194
24.2364
28.7786
33.5775
38.3896
42.8815
46.6326
49.1996
50.2277
49.5676
47.3322
43.8484
39.5438
34.8355
30.0621
25.4783
21.1623
17.2498
14.5633
7.25919
18.8885
27.9837
13.6827
25.9953
31.8529
39.7077
48.36
57.6533
67.4363
77.2407
86.3995
94.0557
99.2916
101.364
99.9618
95.3279
88.1534
79.3283
69.7045
59.9599
50.5838
41.746
33.6277
27.4983
14.5797
29.3349
36.2443
16.1786
31.7746
38.8041
48.7047
59.8972
72.2439
85.5994
99.3471
112.519
123.773
131.588
134.68
132.504
125.502
114.881
102.131
88.592
75.2568
62.7756
51.323
41.0703
33.6917
17.3072
38.0139
45.0372
19.8694
39.4991
48.5634
61.566
76.6128
93.648
112.566
132.571
152.244
169.443
181.582
186.377
182.843
171.804
155.437
136.289
116.514
97.5767
80.3267
64.9133
51.4385
41.9165
21.2853
47.2507
54.2153
23.9702
47.9565
59.531
76.3655
96.3547
119.644
146.276
175.312
204.737
231.168
250.193
257.709
251.909
234.353
208.988
180.188
151.376
124.647
101.024
80.5287
63.0747
50.9133
25.6966
56.8914
63.5407
28.3554
56.9813
71.5547
93.0239
119.233
150.733
187.934
229.904
273.916
314.71
344.777
356.694
347.103
318.977
279.519
236.213
194.415
156.984
124.982
98.0858
75.8193
60.5082
30.4091
66.6871
72.7594
32.9549
66.4186
84.4801
111.418
145.26
187.275
238.638
298.791
364.338
427.375
475.154
494.224
478.295
433.058
371.655
306.854
246.748
194.95
152.203
117.449
89.5045
70.5341
35.3454
76.3712
81.4546
37.5281
75.8036
97.6911
130.746
173.474
228.289
297.743
382.369
478.537
574.689
650.031
680.451
654.236
582.172
487.957
392.501
307.7
237.521
181.68
137.773
103.479
80.4984
40.2486
85.5062
89.1034
41.7505
84.4842
110.235
149.601
201.863
271.031
361.792
476.876
613.148
755.291
870.788
918.186
876.299
764.924
624.987
489.289
373.705
281.85
211.316
157.583
116.738
89.711
44.7724
93.5439
95.1298
45.2177
91.6317
120.806
165.887
227.097
310.286
422.902
570.71
752.691
950.803
1118.02
1187.97
1124.96
962.714
766.992
585.353
436.65
322.543
237.645
174.687
127.91
97.2965
48.4865
99.8798
98.9935
47.5095
96.3702
127.943
177.099
244.873
338.691
468.497
643.257
864.781
1114.18
1331.25
1423.45
1339.41
1127.99
881.06
659.631
483.624
351.996
256.2
186.469
135.458
102.331
50.9444
103.947
100.305
48.2979
98.0066
130.437
181.067
251.26
349.072
485.493
670.915
908.609
1179.76
1418.56
1520.56
1427.28
1194.42
925.753
688.026
501.195
362.807
262.9
190.665
138.114
104.083
51.7976
105.337
98.9235
47.4586
96.2766
127.814
176.919
244.625
338.35
468.032
642.633
863.97
1113.19
1330.15
1422.38
1338.49
1127.26
880.514
659.232
483.335
351.786
256.048
186.359
135.378
102.272
50.9133
103.9
94.9961
45.1215
91.4552
120.564
165.553
226.641
309.669
422.074
569.619
751.306
949.141
1116.2
1186.18
1123.4
961.456
766.028
584.635
436.122
322.155
237.36
174.479
127.758
97.1848
48.4271
99.7892
88.9175
41.6188
84.2433
109.908
149.155
201.266
270.238
360.752
475.54
611.491
753.35
868.689
916.126
874.464
763.406
623.793
488.377
373.019
281.337
210.934
157.299
116.53
89.5561
44.6898
93.4167
81.2309
37.3728
75.5202
97.3114
130.236
172.801
227.416
296.626
380.974
476.853
572.76
647.97
678.426
652.402
580.616
486.697
391.512
306.936
236.938
181.237
137.44
103.232
80.3127
40.1494
85.3516
72.5139
32.7877
66.1145
84.078
110.886
144.57
186.399
237.544
297.458
362.77
425.615
473.295
492.393
476.613
431.598
370.441
305.875
245.974
194.345
151.735
117.092
89.2364
70.3309
35.2366
76.1993
63.2887
28.187
56.6758
71.1557
92.5035
118.57
149.906
186.924
228.701
272.53
313.181
343.177
355.115
345.635
317.679
278.415
235.301
193.677
156.396
124.519
97.7278
75.5472
60.3
30.2973
66.5084
53.9708
23.8092
47.6655
59.1551
75.8812
95.7468
118.898
145.382
174.267
203.554
229.881
248.856
256.388
250.669
233.239
208.022
179.374
150.704
124.102
100.59
80.1877
62.8128
50.7111
25.5876
56.7158
44.8122
19.7229
39.2351
48.2256
61.1355
76.0793
93.0029
111.804
131.694
151.265
168.389
180.493
185.301
181.824
170.877
154.621
135.59
115.928
97.0946
79.9367
64.6039
51.1986
41.7299
21.1842
47.0871
36.0482
16.0512
31.5466
38.5144
48.3389
59.4484
71.7076
84.9735
98.6355
111.733
122.934
130.725
133.826
131.691
124.754
114.215
101.552
88.1011
74.8478
62.4411
51.0551
40.8609
33.5278
17.2178
37.8697
27.8236
13.5737
25.8033
31.6095
39.4025
47.9889
57.2141
66.9291
76.6698
85.7749
93.393
98.6118
100.691
99.3176
94.7309
87.6158
78.8561
69.2988
59.6182
50.3015
41.518
33.4483
27.3579
14.5016
29.2159
17.912
6.69559
13.5897
16.1074
19.8435
24.0233
28.5271
33.2878
38.0644
42.5265
46.2567
48.8145
49.8463
49.2026
46.9936
43.543
39.2753
34.6046
29.8674
25.3172
21.0319
17.1468
14.4814
7.21519
18.808
18.9329
17.9322
27.8808
36.1723
45.0391
54.3416
63.8477
73.3048
82.2918
90.2754
96.6611
100.884
102.524
101.413
97.6746
91.6911
84.003
75.1937
65.7974
56.2441
46.7985
37.7118
29.143
18.7824
19.7882
24.6912
18.7371
31.0909
39.3877
48.9627
58.9717
69.2467
79.5307
89.3557
98.1335
105.194
109.887
111.725
110.506
106.378
99.7861
91.3514
81.7321
71.5182
61.1889
51.0158
41.1849
32.5922
19.6989
25.8348
18.7008
1.804
9.30573
9.02098
11.1622
13.4431
16.1076
19.1423
22.373
25.5594
28.3504
30.3413
31.185
30.7284
29.0825
26.5638
23.5619
20.4272
17.4082
14.694
12.3105
10.0161
10.205
2.24579
19.7282
30.997
9.2916
23.6131
26.6539
33.4743
40.6612
48.5949
57.1645
65.9572
74.3788
81.5901
86.6336
88.6916
87.4079
83.0539
76.3854
68.3303
59.7268
51.186
43.1484
35.75
28.6177
25.3312
10.2169
32.6681
39.1886
8.95529
26.5604
29.1643
37.0193
45.5759
55.4538
66.6003
78.5251
90.3986
100.91
108.438
111.515
109.489
102.881
93.0676
81.6387
69.9154
58.7617
48.7139
39.8627
31.5985
28.6944
10.0707
41.3461
48.6042
11.0165
33.2339
36.867
47.4335
59.326
73.4812
89.9556
108.161
126.867
143.9
156.341
161.406
157.83
146.665
130.563
112.408
94.41
77.8634
63.4305
51.1123
39.9879
35.9471
12.4313
51.3062
58.3904
13.1798
40.1997
45.1767
59.0512
75.2832
95.2945
119.432
147.133
176.677
204.503
225.341
233.818
227.433
208.341
181.717
152.814
125.275
100.941
80.49
63.6561
49.0418
43.5267
14.9121
61.6597
68.3744
15.6835
47.8277
54.697
72.784
94.8317
123.036
158.396
200.702
247.75
293.84
329.39
343.913
332.344
299.173
254.602
208.241
165.972
130.204
101.32
78.4352
59.3827
51.8145
17.7589
72.2244
78.2996
18.512
56.0015
65.3623
88.6632
118.274
157.632
209.048
273.434
348.527
425.457
487.006
512.396
491.203
432.886
357.815
283.362
218.755
166.595
126.222
95.4683
70.9302
60.6787
20.9478
82.7284
87.7061
21.4925
64.3107
76.6785
106.085
145.009
198.794
272.161
368.719
487.478
615.875
722.964
767.846
728.924
626.178
499.965
381.626
284.396
209.793
154.547
114.105
83.1502
69.6765
24.2881
92.6855
96.0227
24.3935
72.1766
87.8305
123.828
173.306
244.27
345.344
485.31
667.215
873.975
1055.81
1134.06
1064.15
888.005
683.642
501.709
360.388
257.426
184.46
133.042
95.1661
78.1835
27.5237
101.492
102.606
26.8813
78.7929
97.5491
139.768
199.658
288.394
419.706
610.486
870.241
1185.78
1479.12
1609.89
1490.38
1204.15
890.978
630.492
437.517
303.578
212.274
150.028
105.622
85.3344
30.29
108.467
106.842
28.5773
83.2532
104.284
151.092
218.936
321.775
478.252
713.511
1046.82
1472.94
1889.85
2081.34
1903.84
1495.24
1071.27
736.461
498.223
338.484
232.617
162.094
112.87
90.1596
32.1756
112.962
108.28
29.1659
84.8024
106.665
155.164
226.008
334.298
500.786
754.338
1119.46
1596.36
2072.74
2294.11
2088.04
1620.51
1145.59
778.583
521.681
351.644
240.126
166.466
115.456
91.8525
32.8388
114.5
106.756
28.5234
83.144
104.134
150.875
218.625
321.327
477.605
712.581
1045.53
1471.24
1887.88
2079.43
1902.28
1494.11
1070.48
735.925
497.857
338.231
232.44
161.969
112.782
90.0941
32.1447
112.906
102.442
26.7801
78.5881
97.2698
139.371
199.096
287.6
418.585
608.924
868.128
1183.09
1476.07
1606.92
1487.88
1202.27
889.632
629.549
436.859
303.116
211.946
149.794
105.457
85.2099
30.2312
108.358
95.7951
24.2562
71.8991
87.4577
123.306
172.584
243.277
343.985
483.481
664.837
871.062
1052.57
1130.89
1061.42
885.859
682.041
500.547
359.551
256.824
184.024
132.726
94.9395
78.0115
27.4425
101.339
87.4333
21.3324
63.987
76.2511
105.497
144.215
197.732
270.757
366.898
485.195
613.173
720.024
764.965
726.375
624.096
498.348
380.408
283.489
209.121
154.049
113.738
82.8832
69.4711
24.1911
92.5
78.0011
18.3417
55.657
64.9153
88.0593
117.477
156.595
207.719
271.769
346.51
423.138
484.524
509.959
489.002
431.03
356.321
282.195
217.857
165.911
125.704
95.0788
70.6429
60.4548
20.8421
82.5225
68.0688
15.5138
47.4843
54.2586
72.2019
94.0795
122.081
157.205
199.253
246.046
291.926
327.37
341.925
330.52
297.592
253.29
207.182
165.134
129.55
100.814
78.0479
59.0931
51.586
17.6509
72.0106
58.0944
13.0189
39.8743
44.7675
58.5159
74.6043
94.4502
118.404
145.912
175.273
202.958
223.725
232.226
225.951
207.03
180.601
151.89
124.526
100.344
80.0187
63.2897
48.7642
43.3052
14.8072
61.4495
48.3319
10.8708
32.9397
36.5015
46.9616
58.7366
72.7612
89.095
107.158
125.736
142.672
155.068
160.149
156.649
145.602
129.64
111.628
93.7648
77.3388
63.0102
50.781
39.7342
35.7427
12.3341
51.1103
38.9516
8.83016
26.3088
28.8548
36.6239
45.0882
54.8662
65.9085
77.7313
89.515
99.9609
107.458
110.547
108.572
102.046
92.3313
81.0065
69.3842
58.3234
48.3581
39.5791
31.3793
28.5164
9.98551
41.1734
30.8
9.17876
23.394
26.3839
33.1328
40.2448
48.0999
56.5896
65.3067
73.6634
80.8283
85.8509
87.9172