/*--------------------------------*- C++ -*----------------------------------*\
| =========                 |                                                 |
| \\      /  F ield         | OpenFOAM: The Open Source CFD Toolbox           |
|  \\    /   O peration     | Version:  2412                                  |
|   \\  /    A nd           | Website:  www.openfoam.com                      |
|    \\/     M anipulation  |                                                 |
\*---------------------------------------------------------------------------*/
FoamFile
{
    version     2.0;
    format      ascii;
    arch        "LSB;label=32;scalar=64";
    class       volScalarField;
    location    "1500";
    object      p;
}
// * * * * * * * * * * * * * * * * * * * * * * * * * * * * * * * * * * * * * //

dimensions      [0 2 -2 0 0 0 0];

internalField   nonuniform List<scalar> 
124215
(
6982.16
6920.35
6825.26
6646.51
6455.34
6200.78
5965.12
5722.37
5546.04
5446.69
5468.6
5617.63
5828.66
6100.83
6355.51
6624.35
6825.86
7011.7
7111.71
7175.41
6923.22
6851.75
6724.64
6509.71
6252
5932.65
5598.35
5278.94
4994.33
4852.37
4883.69
5090.48
5391.01
5740.67
6092.05
6426.56
6693.95
6915.64
7047.11
7120.54
6834.03
6730.29
6561.68
6247.92
5881.32
5381.06
4859.66
4300.95
3815.53
3578.09
3717.87
4040.97
4540.07
5077.43
5592.6
6084.79
6451.66
6764.96
6935.58
7039.48
6663.81
6523.64
6258.21
5815.72
5232.17
4500.72
3644.52
2827.56
1964.24
1532.53
1634.12
2149.14
3030.68
3851.08
4717.08
5450.09
6032.88
6474.66
6740.61
6880.11
6486.28
6279.75
5909.62
5244.65
4363.07
3153.76
1638.85
20.039
-2084.34
-3089.83
-1568.29
-699.192
959.819
2225.56
3572.61
4670.94
5514.36
6152.63
6516.29
6718.08
6246.17
5973.86
5432.68
4529.86
3209.32
1572.36
-675.929
-2585.45
-6223.55
-8294.84
-6433.24
-5349.58
-1968.73
-236.547
1993.73
3557.56
4827.83
5700.97
6228.8
6494.75
6035.44
5668.06
4965.95
3713.73
1845.52
-701.335
-4829.39
-10131
-23655.6
-31328.7
-10939.9
-11578.4
-5078.05
-2985.06
291.421
2389.55
4113.72
5269.39
5947.48
6300.66
5809.15
5361.12
4447.44
2876.27
342.653
-2844.81
-9200.89
-14040.2
-44145
-65491.9
-33718.5
-26776.9
-9370.51
-6793.89
-1614.92
1060.81
3360.24
4797.8
5664.31
6092.04
5668.69
5145.53
4115.09
2275.73
-687.784
-5070.85
-13957.6
-32576.2
-80917.8
-120640
-78388.5
-30328.2
-12869.2
-9638.15
-3186.42
41.7103
2762.29
4458.29
5448.93
5953.71
5581.88
5020.43
3913.68
1895.15
-1120.66
-5933.49
-12209.9
-24160
-42598.1
-53101.8
-42484.1
-8074.01
-14366.1
-9002.85
-4142.17
-389.658
2406.17
4269.43
5330.44
5871.81
5623.63
5075.71
4034.8
2047.47
-509.992
-5036.26
-8505.72
-17595.7
-10082.5
-15500.3
-23631.4
-14602.9
-14808.9
-8449.51
-4236.39
-213.781
2427.07
4324.93
5364.39
5902.23
5774.89
5266.78
4318.93
2514.48
164.732
-3695.1
-7298.22
-13859.6
-15412.8
-20442.1
-16430.2
-10715.8
-11694.3
-6277.08
-3020.79
570.367
2873.09
4612.24
5548.63
6047.72
5988.28
5560.82
4755.84
3264.79
1339.76
-1626.93
-4455.24
-8616.89
-11034.5
-12918.9
-14311.8
-10976.2
-8275.89
-4310.63
-1288.11
1587.08
3548.98
5010.03
5820.21
6242.88
6260.84
5909.51
5282.74
4102
2614.62
368.505
-1882.71
-4863.63
-7088.57
-8951.15
-8275.8
-6383.76
-4376.64
-1515.69
672.354
2877.37
4357.21
5525.71
6152.4
6500.9
6510.86
6250.9
5765.54
4899.93
3790.16
2221.48
565.396
-1333.12
-2931.5
-3882.29
-4077.94
-2826.97
-1218.92
719.993
2418.1
3991.84
5118.42
5983.58
6473.94
6733.89
6778.53
6584.27
6252.94
5632.23
4885.12
3813.01
2724.05
1457.53
480.57
-196.313
-64.9943
625.845
1632.78
2903.9
4000.44
5078.99
5833.53
6457.78
6792.99
6988.04
6976.22
6845.49
6606.68
6190.77
5677.77
4992.51
4277.92
3523.76
2902.92
2546.1
2531.73
2970.37
3612.86
4402.79
5142.71
5845.25
6372.47
6796.02
7040.55
7173.14
7161.33
7066.39
6918.4
6631.35
6315.64
5869.01
5446.1
4972.09
4628.54
4399.64
4435.18
4691.91
5072.74
5569.41
6012.93
6474.95
6803.12
7098.19
7251.75
7348.88
7259.79
7195.59
7084.71
6890.05
6665.98
6376.81
6091.41
5802.43
5575.85
5446.46
5461.22
5630.96
5884.77
6201.25
6508.27
6815.21
7052.81
7256.73
7373.83
7440.5
7322.95
7268.32
7187.82
7028.6
6866.75
6641.26
6443.5
6226.61
6077.73
5981.96
5999.45
6128.41
6307.81
6550.36
6769.7
7012.08
7187.62
7356.16
7442.89
7500.27
-1100.36
-1152.82
-1256.16
-1383.09
-1532.49
-1659.38
-1758.22
-1792.75
-1778.46
-1720.93
-1692.7
-1697.78
-1692.59
-1656.22
-1564.19
-1445.21
-1303.23
-1181.27
-1081.19
-1030.28
-1150.25
-1209.62
-1324.48
-1471.9
-1644.44
-1801.96
-1929.26
-1991.47
-1995.45
-1938.99
-1911.69
-1901.83
-1877.05
-1813.62
-1696.16
-1549.1
-1386.23
-1245.21
-1134.51
-1076.99
-1248.02
-1318.97
-1464.41
-1649.48
-1882.25
-2105.37
-2315.26
-2456.57
-2524.44
-2447.52
-2396.98
-2351.7
-2261.52
-2143.01
-1960.96
-1761.93
-1547.35
-1374.01
-1235.59
-1167.88
-1365.74
-1456.84
-1638.65
-1883.77
-2193.21
-2511.47
-2828.62
-3075.3
-3231.47
-3101.13
-3075.97
-2990.6
-2793.59
-2590.02
-2321.22
-2041.2
-1760.17
-1533.46
-1362.22
-1276.02
-1499.78
-1612.82
-1850.9
-2170.57
-2596.19
-3056.48
-3562.25
-4011.52
-4362.48
-4022.49
-3984.85
-3838.17
-3456
-3145.39
-2760.24
-2383.09
-2009.15
-1721.96
-1501.17
-1396.12
-1605.24
-1746.49
-2040.99
-2447.54
-3002.45
-3614.68
-4344.29
-5051.57
-5925.39
-5646.14
-5042.28
-4993.62
-4156.47
-3726.04
-3199.3
-2716.4
-2242.67
-1884.32
-1614.78
-1485
-1671.05
-1835.32
-2192.85
-2685.88
-3388.03
-4203.13
-5424.44
-7514.29
-12868.6
-16377.1
-9472.34
-6709.47
-4593.61
-4173.89
-3544.14
-2985.09
-2417.98
-2003.19
-1680.77
-1532.89
-1665.23
-1849.03
-2246.99
-2793.07
-3565.24
-4357.61
-5926.06
-9530.85
-15136.3
-11545.4
-6580.64
-10329
-4161.39
-4274.06
-3677.91
-3110.98
-2484.31
-2032.88
-1675.06
-1510.93
-1598.85
-1784.12
-2193.38
-2718.24
-3393.32
-3792.89
-5306.79
-11220.3
-8569.91
7437.86
3333.14
-15385.4
-2428.53
-3738.42
-3476.67
-3038.99
-2427.27
-1982.6
-1606.97
-1440.19
-1510.9
-1699.58
-2111.47
-2673.44
-3411.89
-4176.03
-5335.86
-9790.88
-10182.2
5705.53
11747
-4448.83
-712.865
-3092.05
-3106.06
-2847.95
-2320.16
-1889.5
-1523.29
-1357.1
-1461.2
-1642.6
-2012.78
-2524.33
-3051.08
-3544.35
-3372.94
-3506.38
1556.9
9273.6
7103.05
1377.46
-1559.85
-2553.58
-3015.47
-2725.19
-2286.84
-1851.32
-1505.12
-1339.44
-1486.13
-1658.09
-2008.77
-2484.65
-2983.64
-3434.78
-3365.86
-3207.68
-226.731
2298.4
3473.02
1076.54
-2195.45
-2776.43
-3086.5
-2764.08
-2320.02
-1888.14
-1551.85
-1389.21
-1513.07
-1674.7
-1996.83
-2433.68
-2920.87
-3350.06
-3464.89
-3327.65
-2014.91
-344.886
-897.941
-1948.52
-3006.78
-3224.22
-3168.59
-2790.12
-2325.34
-1909.43
-1593.4
-1436.51
-1506.68
-1648.11
-1935.82
-2318.79
-2764.67
-3179.42
-3390.24
-3392.79
-2869.27
-2220.29
-2128.53
-2669.23
-3206.05
-3246.17
-3068.58
-2676.06
-2241.09
-1866.71
-1581.61
-1442.04
-1440.86
-1562.49
-1802.21
-2124.48
-2504.43
-2864.03
-3110.24
-3172.49
-2974.99
-2691.18
-2748.42
-2949.84
-3112.71
-3046.89
-2802.78
-2446.49
-2067.45
-1746.54
-1506.3
-1384.82
-1340.4
-1437.34
-1634.13
-1889.63
-2195.85
-2483.99
-2699.72
-2790.19
-2718.85
-2583.8
-2563.3
-2678.93
-2745.05
-2653.58
-2438.69
-2149.68
-1842.14
-1585.24
-1386.98
-1289.27
-1212.86
-1291.48
-1443.38
-1642.91
-1873.74
-2086.75
-2243.14
-2302.53
-2259.15
-2173.13
-2179.36
-2249.97
-2282.85
-2216.24
-2054.54
-1836.87
-1602.18
-1399.59
-1245.36
-1165.44
-1099.41
-1160.35
-1283.11
-1433.96
-1610.84
-1760.6
-1867.13
-1891.51
-1847.27
-1777.12
-1771.31
-1834.53
-1873.07
-1843.03
-1731.75
-1577.07
-1396.19
-1241.82
-1116.62
-1054.21
-1005.25
-1056.53
-1153.89
-1275.37
-1407.85
-1515.4
-1577
-1571.93
-1511.79
-1441.74
-1441.99
-1505.05
-1559.56
-1557.83
-1490.18
-1376.93
-1239.83
-1114.47
-1014.53
-961.664
-956.853
-1002.07
-1089.88
-1193.87
-1308.72
-1392.95
-1437.4
-1416.7
-1352.76
-1283.35
-1281.39
-1345.79
-1404.02
-1418.56
-1368.24
-1278.41
-1158.91
-1051
-960.572
-913.867
193.093
155.867
88.1023
-4.23918
-105.822
-205.892
-286.991
-341.628
-364.197
-366.073
-360.521
-343.234
-305.503
-240.264
-152.941
-48.9512
54.9316
148.822
217.534
255.255
157.639
116.379
40.1306
-63.7449
-180.462
-295.983
-392.749
-458.033
-485.336
-485.882
-484.4
-468.687
-423.056
-345.771
-242.125
-122.431
-3.36213
102.023
179.18
220.9
93.5351
43.8313
-47.4176
-174.817
-318.05
-464.133
-585.652
-668.617
-692.839
-682
-698.289
-694.809
-640.812
-540.413
-409.546
-258.142
-112.187
16.7483
108.875
159.01
7.22813
-53.8077
-168.273
-327.326
-510.302
-694.297
-847.684
-937.264
-929.728
-860.493
-943.618
-994.474
-938.623
-814.787
-643.752
-450.222
-262.654
-101.393
14.1838
75.713
-85.8462
-161.517
-301.616
-499.732
-723.205
-946.005
-1108.92
-1157.33
-995.737
-703.585
-1013.29
-1259.65
-1247.6
-1112.97
-909.642
-666.747
-434.021
-231.909
-89.9686
-13.571
-174.455
-264.711
-433.751
-668.43
-930.017
-1165.04
-1287.09
-1168.78
-638.359
310.503
-703.088
-1390.9
-1495.47
-1397.23
-1173.58
-889.632
-606.476
-363.051
-190.198
-98.5367
-241.765
-346.252
-537.234
-801.051
-1069.77
-1260.21
-1189.48
-596.989
1146.78
4199.12
795.784
-1123.37
-1484.59
-1536.02
-1369.59
-1066.74
-750.356
-468.464
-269.865
-162.606
-281.351
-394.85
-600.073
-865.806
-1083.39
-1055.59
-384.616
1886.66
8651.51
19235.9
5781.81
-85.8267
-1099.79
-1449.46
-1448.82
-1178.48
-845.632
-540.148
-319.732
-200.947
-292.817
-413.604
-625.925
-890.964
-1041.54
-768.238
711.324
5593.6
21014.3
39913.8
13651.9
1784.78
-244.136
-1133.21
-1408.1
-1208.95
-888.193
-570.084
-338.948
-211.739
-287.082
-413.853
-641.338
-940.635
-1186.45
-1198.62
-673.373
1014.81
6099.11
14444.8
7754.27
1834.63
-262.131
-1151.21
-1417.97
-1218.38
-899.497
-574.9
-337.506
-206.85
-272.418
-399.933
-633.309
-947.534
-1243.55
-1397.21
-1139.74
-84.0201
2840.51
6210.89
4078.32
1034.81
-672.566
-1325.27
-1440.55
-1215.98
-888.478
-563.812
-325.754
-196.053
-248.579
-372.357
-598.533
-911.318
-1222.55
-1457.77
-1397.38
-868.223
610.808
2063.8
1266.66
-20.4611
-1108.05
-1461.13
-1451.79
-1183
-854.084
-534.38
-304.559
-179.1
-212.243
-326.611
-539.608
-835.127
-1152.08
-1432.87
-1541.88
-1397.27
-830.62
-320.411
-560.745
-1044.35
-1471.44
-1548.18
-1406.78
-1109.77
-781.644
-480.954
-264.632
-148.71
-151.56
-253.948
-442.738
-710.886
-1004.68
-1294.58
-1477.27
-1520.96
-1347.56
-1163.04
-1244.7
-1415.71
-1534.84
-1462.07
-1263.31
-963.008
-661.714
-388.91
-196.995
-93.0901
-70.3867
-156.959
-319.467
-547.083
-806.568
-1066.55
-1270.27
-1381.95
-1378.73
-1335.08
-1357.93
-1398.69
-1380.12
-1252.03
-1036.26
-767.747
-501.442
-269.263
-103.621
-15.5104
28.1977
-43.3389
-175.224
-362.182
-572.72
-791.082
-968.001
-1090.69
-1133.28
-1139.86
-1145.23
-1134.58
-1079.96
-946.703
-761.151
-535.514
-319.064
-127.681
7.23015
80.2945
127.296
70.3245
-35.9308
-182.954
-350.637
-520.199
-664.477
-765.244
-815.564
-830.383
-829.972
-810.385
-751.81
-642.713
-490.818
-314.636
-141.385
9.89195
119.078
177.534
217.871
171.972
88.4494
-27.4865
-155.581
-285.245
-390.854
-466.459
-502.071
-513.819
-511.966
-494.449
-451.657
-368.712
-256.248
-120.366
12.9744
133.025
219.381
266.733
284.329
246.583
177.479
84.2089
-18.508
-118.089
-198.517
-251.491
-275.84
-281.451
-278.567
-267.046
-235.99
-176.184
-89.236
16.3037
124.086
221.349
293.215
332.374
321.001
287.138
226.177
143.923
55.6276
-29.2002
-94.332
-135.92
-151.711
-153.744
-150.938
-142.691
-120.347
-72.0111
-0.488058
90.208
183.482
269.681
333.363
368.633
-456.532
-478.136
-518.402
-569.659
-624.231
-671.101
-703.604
-716.806
-715.658
-710.509
-712.866
-718.868
-716.856
-698.399
-660.779
-608.979
-550.38
-495.877
-453.457
-430.733
-477.321
-500.411
-543.193
-597.713
-655.022
-703.179
-734.205
-742.466
-734.165
-725.17
-732.661
-747.68
-752.331
-736.678
-698.4
-643.472
-580.782
-522.094
-476.603
-452.13
-516.024
-541.644
-589.199
-648.944
-710.164
-758.133
-781.784
-774.643
-744.231
-722.628
-744.462
-784.78
-809.058
-802.778
-766.297
-706.984
-637.127
-571.102
-519.601
-492.031
-564.903
-593.83
-646.667
-711.648
-773.962
-813.458
-814.324
-764.544
-675.76
-618.238
-678.214
-783.737
-853.893
-873.934
-847.231
-786.666
-709.178
-633.911
-574.852
-542.957
-616.625
-648.466
-705.555
-772.053
-825.588
-837.97
-778.947
-629.813
-396.949
-245.426
-404.663
-660.287
-834.945
-913.389
-918.137
-865.213
-784.467
-700.771
-633.752
-597.353
-660.268
-693.932
-751.981
-812.054
-841.254
-792.853
-618.518
-274.98
250.301
620.102
250.194
-325.334
-688.266
-881.381
-949.04
-922.935
-846.579
-758.608
-685.085
-644.57
-690.099
-723.484
-776.868
-818.833
-795.031
-630.966
-230.935
499.131
1692.02
2670.94
1620.45
374.395
-332.72
-724.683
-913.783
-939.964
-883.62
-797.743
-721.319
-678.114
-701.838
-733.178
-777.771
-790.505
-689.05
-341.572
437.409
1961.41
4974.47
8054.91
4679.06
1617.33
292.662
-431.917
-802.958
-913.553
-889.042
-813.373
-737.462
-693.314
-701.949
-732.23
-771.53
-765.895
-610.575
-131.091
938.745
3216.33
8495.83
14527.6
8058.97
2805.76
889.669
-143.018
-682.524
-868.498
-876.589
-811.809
-738.446
-694.423
-697.199
-729.904
-774.936
-783.015
-660.863
-273.395
559.81
2098.3
5113.24
8256
5844.87
2544.1
918.002
-109.925
-648.973
-849.995
-867.09
-805.599
-732.854
-688.668
-695.056
-731.672
-787.287
-819.602
-754.539
-490.281
98.9629
1167.06
2874.97
4448.86
3668.21
1858.97
556.713
-267.205
-712.996
-872.966
-874.24
-805.862
-730.309
-685.103
-693.747
-734.19
-799.887
-857.976
-847.595
-698.113
-310.558
394.174
1433.72
2244.39
1918.74
928.171
42.6209
-530.869
-834.13
-922.352
-892.181
-809.54
-729.54
-682.719
-686.226
-728.765
-802.691
-880.288
-921.131
-867.688
-667.059
-271.928
278.681
684.464
540.031
42.8862
-454.388
-789.457
-945.973
-964.419
-898.578
-804.591
-720.664
-673.493
-663.751
-706.231
-782.103
-871.845
-943.09
-961.229
-882.728
-695.761
-426.041
-231.832
-287.351
-530.968
-787.881
-948.903
-1004.23
-965.811
-878.886
-778.059
-695.13
-649.251
-624.083
-663.981
-737.199
-827.544
-914.469
-968.231
-967.131
-894.401
-777.899
-689.941
-714.373
-827.239
-940.065
-1001.03
-989.174
-923.251
-826.149
-728.182
-649.908
-607.507
-570.842
-606.541
-672.723
-757.264
-843.401
-912.32
-943.884
-932.716
-888.065
-851.505
-861.811
-909.832
-954.429
-959.393
-920.194
-843.289
-750.185
-660.088
-590.134
-552.507
-511.766
-542.785
-600.498
-674.964
-754.062
-821.458
-865.618
-877.823
-867.298
-852.983
-857.181
-876.559
-886.296
-870.289
-820.878
-747.899
-663.685
-585.014
-524.375
-491.831
-456.861
-483.396
-533.075
-597.174
-665.92
-726.672
-769.32
-788.949
-789.372
-783.829
-785.333
-792.179
-790.745
-767.926
-721.263
-656.069
-583.248
-515.701
-463.603
-435.79
-414.39
-437.719
-481.091
-537.108
-597.119
-650.236
-688.756
-707.706
-711.229
-708.018
-708.29
-711.166
-705.942
-684.053
-641.967
-585.022
-521.481
-462.461
-416.974
-392.517
-391.596
-413.126
-453.272
-504.758
-559.938
-608.557
-643.863
-661.581
-665.258
-662.649
-662.402
-663.933
-658.346
-637.716
-599.052
-546.838
-488.359
-434.059
-391.926
-369.342
-275.987
-286.824
-306.006
-329.661
-352.261
-369.114
-376.928
-376.064
-371.429
-370.569
-378.096
-390.176
-399.405
-398.965
-386.96
-364.436
-336.351
-307.977
-285.498
-272.933
-286.941
-297.916
-317.115
-340.129
-360.833
-373.576
-375.139
-365.707
-353.322
-349.318
-361.418
-382.908
-401.243
-407.977
-399.95
-379.266
-351.219
-322.139
-298.794
-285.685
-306.556
-317.597
-336.109
-356.975
-371.675
-373.879
-357.81
-326.338
-291.439
-278.696
-303.211
-348.875
-391.698
-415.835
-419.402
-403.707
-377.336
-347.393
-322.884
-308.835
-331.157
-341.763
-358.414
-373.749
-376.598
-356.169
-305.556
-225.803
-142.36
-107.439
-160.3
-259.243
-350.386
-410.681
-435.738
-431.825
-409.337
-379.639
-353.845
-338.778
-355.917
-365.223
-376.978
-381.606
-360.382
-298.712
-178.931
-4.81507
185.434
270.509
154.249
-53.4509
-240.688
-365.564
-433.327
-450.894
-439.076
-411.76
-386.126
-370.24
-376.436
-382.967
-386.934
-372.867
-314.206
-182.036
52.0104
399.86
795.729
995.366
733.954
317.746
-32.6417
-266.522
-399.555
-454.639
-459.47
-438.858
-414.508
-398.582
-390.47
-393.326
-385.455
-346.15
-230.768
5.28634
430.725
1092.94
1940.55
2419.26
1783.97
939.57
304.686
-92.8707
-327.782
-434.489
-466.595
-455.761
-435.491
-420.024
-398.017
-396.869
-377.793
-310.758
-134.932
225.787
893.026
2028.33
3638.44
4601.95
3264.68
1744.08
715.518
117.879
-232.635
-401.217
-461.825
-463.715
-447.605
-433.38
-403.444
-400.992
-376.361
-296.586
-87.5037
339.455
1154.11
2609.43
4741.07
5999.8
4247.39
2295.39
994.876
269.59
-163.986
-374.05
-456.675
-466.563
-454.035
-440.34
-408.827
-408.45
-388.642
-318.84
-131.615
245.083
927.361
2041.46
3530.17
4384.11
3383.22
2037.66
930.912
254.827
-169.005
-377.509
-460.782
-470.552
-457.456
-443.337
-415.863
-420.07
-412.532
-367.017
-232.287
45.5784
534.502
1278.27
2161.41
2672.72
2254.94
1425.05
651.536
103.476
-239.794
-412.577
-476.329
-477.867
-460.141
-444.451
-420.096
-429.805
-435.132
-417.978
-335.073
-155.859
173.799
654.503
1187.04
1494.94
1291.93
799.356
292.134
-96.7655
-345.089
-460.695
-497.333
-484.017
-460.337
-442.077
-419.328
-433.29
-451.272
-457.199
-423.491
-322.799
-130.742
156.945
462.107
628.884
537.435
263.347
-45.0015
-293.613
-442.848
-506.601
-511.214
-485.001
-454.251
-434.187
-408.44
-425.677
-451.429
-476.301
-476.094
-438.61
-339.907
-191.465
-27.2905
61.8784
16.0573
-129.436
-302.69
-435.41
-512.569
-528.799
-511.136
-472.939
-438.475
-416.958
-387.766
-406.045
-436.825
-471.184
-494.971
-494.065
-460.165
-391.729
-316.904
-273.466
-294.766
-368.92
-451.759
-514.718
-537.469
-526.27
-491.415
-448.391
-411.723
-390.484
-357.926
-376.075
-407.357
-446.234
-479.851
-501.546
-499.509
-478.807
-447.291
-430.429
-441.479
-474.202
-511.423
-529.852
-526.003
-496.946
-456.312
-411.598
-376.254
-356.013
-324.583
-341.513
-371.783
-410.104
-448.149
-478.089
-494.666
-495.555
-489
-483.984
-489.191
-502.541
-512.218
-510.331
-490.183
-455.587
-412.85
-370.491
-337.343
-318.907
-292.324
-307.783
-335.575
-371.671
-408.571
-441.23
-463.119
-474.591
-477.031
-477.828
-480.518
-483.662
-482.821
-470.373
-446.019
-409.991
-369.683
-330.564
-300.594
-283.979
-267.491
-281.667
-307.434
-340.918
-376.232
-408.064
-432.148
-446.514
-453.436
-455.984
-457.188
-456.491
-450.031
-434.64
-408.503
-373.984
-335.946
-300.023
-272.483
-257.36
-253.734
-267.174
-291.62
-323.515
-357.265
-388.26
-412.026
-427.352
-435.059
-438.237
-438.934
-436.624
-428.937
-412.46
-386.797
-353.368
-317.178
-283.09
-257.045
-242.749
-289.827
-293.193
-298.578
-303.548
-305.495
-302.157
-293.559
-281.63
-271.931
-269.745
-278.378
-294.941
-313.636
-328.371
-335.81
-335.4
-329.033
-319.845
-311.356
-306.319
-293.968
-296.797
-300.862
-303.475
-301.579
-292.561
-276.828
-256.778
-240.694
-236.081
-247.869
-271.76
-298.741
-321.185
-334.264
-337.759
-333.648
-325.59
-317.615
-312.718
-301.134
-302.704
-303.77
-301.025
-290.108
-268.28
-235.117
-196.277
-163.692
-153.214
-172.542
-213.519
-260.831
-300.441
-327.193
-339.372
-340.747
-335.405
-328.73
-324.268
-309.148
-308.6
-304.626
-292.6
-266.526
-221.483
-158.031
-82.8911
-19.6033
3.03049
-30.808
-105.41
-188.576
-259.932
-309.201
-336.978
-347.3
-346.795
-342.372
-338.698
-316.065
-312.321
-300.469
-274.395
-223.576
-142.166
-26.0693
110.559
232.203
276.866
216.421
83.1859
-63.6678
-185.13
-272.579
-323.87
-349.248
-356.215
-355.713
-353.394
-319.81
-311.745
-289.742
-244.006
-160.051
-24.6581
167.623
404.429
623.217
708.494
601.113
365.536
123.258
-74.5823
-213.222
-299.028
-343.677
-361.525
-366.056
-365.756
-321.018
-308.261
-274.043
-205.911
-79.4685
123.139
423.228
807.454
1189.36
1341.57
1150.38
754.243
369.185
72.6977
-135.099
-261.335
-331.395
-361.483
-372.701
-374.675
-320.565
-303.51
-259.03
-169.623
-4.71138
265.845
676.65
1232.05
1813.05
2057.29
1764.47
1165.51
624.633
220.525
-53.9671
-222.699
-315.633
-358.534
-375.468
-379.854
-322.675
-303.814
-253.98
-154.654
30.64
334.099
800.843
1435.93
2112.58
2420.54
2091.68
1397.96
777.124
314.035
-3.16915
-197.145
-306.219
-356.564
-377.66
-383.331
-328.255
-310.535
-263.155
-168.711
8.0575
294.382
728.057
1297.49
1889.61
2157.87
1898.06
1315.83
751.494
307.732
-5.2464
-199.174
-308.946
-359.612
-380.721
-386.334
-338.717
-324.702
-286.477
-208.427
-63.0643
172.605
517.081
953.03
1375.2
1586.06
1430.29
1021.73
581.686
209.475
-59.9321
-230.457
-325.781
-369.421
-386.404
-390.426
-350.101
-341.407
-314.698
-259.856
-151.631
19.6689
274.108
581.619
872.648
1018.69
930.012
658.479
340.392
61.4567
-149.33
-278.644
-352.301
-382.181
-392.895
-393.913
-360.084
-356.371
-342.591
-308.829
-240.402
-124.123
42.6507
249.481
436.543
531.705
479.792
307.832
97.4419
-98.6814
-241.466
-332.123
-377.901
-394.519
-396.932
-395.073
-364.084
-365.01
-361.121
-347.191
-308.675
-242.628
-139.146
-17.0174
98.4839
155.281
125.624
23.3016
-110.898
-230.494
-322.028
-372.91
-397.177
-399.652
-395.723
-390.866
-361.549
-365.56
-369.908
-369.114
-355.553
-322.064
-269.112
-199.732
-138.204
-105.787
-122.451
-182.216
-256.336
-326.871
-373.93
-398.889
-403.649
-397.044
-387.469
-380.776
-352.06
-358.109
-367.068
-375.663
-376.337
-366.927
-342.288
-310.152
-277.625
-262.299
-272.092
-303.248
-344.684
-378.467
-400.524
-404.954
-398.883
-385.442
-372.987
-365.097
-338.648
-345.678
-357.495
-370.908
-381.242
-384.433
-379.523
-366.615
-353.87
-347.059
-352.573
-368.971
-387.222
-401.813
-405.484
-399.433
-385.71
-369.127
-354.957
-346.666
-324.062
-331.392
-344.234
-359.998
-374.491
-385.139
-389.091
-388.036
-384
-382.415
-385.794
-392.992
-400.732
-402.942
-398.413
-385.916
-369.173
-351.197
-336.688
-328.45
-312.146
-319.52
-332.72
-349.339
-366.025
-379.789
-388.958
-392.872
-394.084
-394.549
-396.64
-399.805
-400.976
-397.893
-388.335
-373.262
-354.932
-336.652
-322.187
-314.115
-305.365
-312.658
-325.858
-342.634
-359.899
-374.902
-385.676
-391.857
-394.679
-396.119
-397.708
-398.946
-397.986
-392.415
-381.321
-365.208
-346.553
-328.352
-314.06
-306.163
-219.547
-218.73
-216.387
-211.489
-203.066
-190.785
-176.039
-161.335
-151.304
-149.427
-157.771
-174.142
-194.614
-214.436
-230.444
-241.095
-246.732
-248.561
-248.506
-247.988
-219.879
-218.357
-214.442
-207
-194.842
-177.535
-157.038
-136.228
-121.827
-118.288
-128.707
-150.132
-176.64
-202.664
-223.609
-238.115
-246.35
-249.791
-250.677
-250.544
-220.041
-217.001
-209.717
-196.822
-176.316
-148.224
-114.131
-79.9883
-54.5303
-47.3037
-62.4757
-94.9652
-135.941
-175.077
-207.594
-230.23
-244.353
-251.292
-254.242
-254.978
-219.208
-213.834
-201.368
-179.772
-146.327
-100.02
-44.3292
13.8875
57.5368
71.9046
48.2654
-4.48638
-68.6478
-130.705
-180.694
-216.843
-239.719
-252.171
-258.22
-260.269
-216.936
-208.376
-188.505
-154.851
-101.79
-29.3246
61.7164
156.978
233.274
259.193
221.165
136.583
33.4274
-61.6763
-139.665
-194.403
-230.719
-250.735
-261.36
-265.238
-212.882
-200.393
-171.837
-122.663
-45.8136
62.6608
199.522
350.444
473.387
518.339
457.351
323.232
168.231
26.0404
-85.4254
-165.438
-217.131
-246.973
-262.774
-268.948
-208.736
-192.371
-154.132
-89.0156
16.1093
164.407
360.859
582.79
774.702
845.237
750.174
550.986
325.405
129.445
-24.5422
-130.811
-201.402
-241.078
-263.037
-271.474
-205.65
-185.897
-140.171
-60.7292
67.3523
252.823
502.038
794.614
1050.85
1142.29
1016.28
756.569
468.428
220.41
31.0263
-100.995
-186.523
-235.811
-262.468
-273.092
-207.074
-185.973
-136.253
-50.5723
89.8121
292.27
568.113
891.27
1171
1261.28
1134.28
860.215
544.652
272.901
61.6133
-83.8303
-179.686
-233.848
-263.825
-275.471
-213.007
-192.621
-144.397
-61.5987
74.1969
267.854
528.455
824.791
1079.32
1170.34
1062.18
818.549
524.361
264.416
56.5202
-87.8179
-183.5
-237.569
-267.42
-279.007
-224.47
-206.769
-165.041
-92.7453
23.8865
190.904
407.61
650.715
851.026
932.804
856.767
663.813
425.824
199.139
17.1399
-113.407
-198.808
-247.758
-274.257
-284.537
-237.899
-224.357
-191.044
-135.173
-41.786
85.9645
255.941
436.262
587.201
651.358
601.395
461.182
277.842
101.553
-48.2789
-151.749
-222.772
-261.178
-282.725
-290.439
-251.925
-242.457
-219.538
-178.922
-113.438
-19.1209
98.815
230.101
334.024
380.772
349.554
251.082
122.658
-10.7383
-117.942
-197.317
-247.808
-276.208
-290.627
-295.809
-262.656
-257.361
-242.806
-218.044
-173.868
-114.002
-33.3621
49.2977
120.629
150.949
130.608
67.2329
-22.732
-109.225
-185.254
-236.235
-270.905
-287.393
-296.049
-298.293
-269.598
-267.408
-260.671
-247.143
-222.975
-185.832
-139.459
-86.9759
-46.3698
-26.856
-39.2095
-80.6008
-133.898
-190.958
-235.609
-268.009
-286.354
-294.574
-297.384
-297.506
-271.498
-271.73
-270.073
-265.662
-253.793
-235.786
-208.927
-181.454
-157.065
-147.44
-155.557
-178.874
-212.569
-243.763
-270.617
-286.055
-294.498
-295.498
-294.58
-292.953
-270.033
-271.838
-274.009
-275.238
-272.995
-265.921
-254.882
-240.648
-229.807
-224.932
-229.933
-243.95
-260.99
-278.393
-289.956
-295.838
-296.096
-292.748
-288.919
-286.195
-266.251
-268.964
-273.235
-277.988
-280.792
-281.164
-277.797
-273.066
-268.202
-266.979
-270.414
-277.596
-287.012
-294.127
-298.275
-297.336
-293.373
-287.246
-281.87
-278.529
-262.534
-265.779
-271.31
-278.009
-284.029
-288.158
-290.013
-289.604
-289.075
-289.297
-291.681
-295.794
-299.65
-302.009
-300.933
-296.582
-289.849
-282.213
-275.906
-272.211
-260.136
-263.566
-269.585
-277.058
-284.275
-290.105
-293.763
-295.529
-296.345
-297.373
-299.353
-301.845
-303.869
-303.787
-300.897
-294.965
-287.219
-278.997
-272.345
-268.542
-174.621
-171.818
-165.971
-156.818
-144.434
-129.325
-113.469
-99.1034
-89.9766
-88.2805
-95.5449
-110.193
-129.565
-150.091
-168.941
-184.334
-195.674
-203.145
-207.533
-209.474
-173.093
-169.648
-162.399
-151.115
-135.747
-116.866
-96.9656
-78.4784
-66.6265
-63.8459
-72.3476
-90.1978
-113.517
-138.457
-161.013
-179.522
-193.143
-202.13
-207.491
-209.849
-169.952
-165.146
-155
-139.233
-117.388
-90.6555
-61.3449
-34.3345
-15.5634
-10.5721
-21.7398
-46.1474
-78.889
-112.752
-143.898
-168.812
-187.441
-199.659
-207.049
-210.325
-165.048
-158.267
-143.829
-121.297
-89.9537
-50.6314
-7.61263
34.0031
62.6879
71.7139
56.2529
20.4078
-25.9013
-74.7754
-117.915
-152.961
-178.651
-195.642
-205.964
-210.53
-158.81
-149.438
-129.188
-97.7518
-52.658
3.45486
68.0616
129.815
175.639
190.208
168.283
116.694
48.2786
-20.2959
-82.1732
-130.25
-166.311
-189.532
-203.905
-210.187
-151.562
-139.172
-112.478
-70.1941
-9.79775
68.1701
157.392
247.142
312.973
335.655
305.588
231.431
138.031
42.524
-39.2595
-104.328
-151.287
-182.135
-200.833
-209.114
-145.376
-130.177
-96.5855
-44.0171
33.849
133.329
252.721
372.226
464.02
494.62
455.558
358.407
233.225
111.167
4.56699
-76.3221
-136.365
-174.274
-197.891
-208.03
-141.166
-123.529
-84.893
-23.1888
67.5626
186.474
328.768
474.687
584.195
620.328
576.739
460.874
313.721
166.494
42.1068
-54.2915
-123.578
-168.325
-195.433
-207.323
-141.881
-123.315
-81.813
-16.3407
81.7944
209.138
363.558
519.472
635.848
675.061
631.596
511.54
354.878
197.41
61.2426
-42.3521
-118.398
-166.252
-195.912
-208.554
-147.115
-128.923
-88.1602
-24.0976
72.234
196.044
346.296
495.363
608.239
648.722
608.612
494.347
344.171
191.712
57.1349
-45.8357
-121.741
-169.569
-199.147
-211.779
-158.003
-141.575
-105.014
-46.9924
38.5465
150.382
281.055
414.201
511.576
551.059
517.042
418.99
289.584
150.962
30.39
-65.3044
-134.495
-178.968
-206.098
-217.764
-171.57
-158.098
-127.078
-79.8637
-7.4251
81.8184
191.609
295.916
378.322
410.609
384.833
307.968
199.411
88.0867
-16.4178
-94.6616
-155.022
-191.826
-215.393
-225.049
-187.016
-176.51
-153.137
-115.917
-61.9764
8.90105
88.7598
172.009
231.752
258.311
240.032
180.403
100.919
10.1193
-67.6145
-131.868
-177.596
-207.449
-225.376
-233.048
-200.957
-193.737
-176.622
-151.013
-110.936
-62.7743
-3.07246
52.0294
97.7255
115.407
102.103
61.5632
0.1835
-61.3886
-121.386
-165.743
-200.668
-221.237
-234.554
-239.739
-212.83
-208.204
-197.501
-180.358
-155.097
-121.549
-84.4799
-45.4835
-18.0977
-5.18127
-14.0065
-43.5048
-81.8967
-126.849
-165.035
-196.96
-219.193
-233.177
-241.391
-244.655
-221.052
-218.602
-212.346
-202.706
-186.801
-167.39
-142.838
-120.583
-101.964
-95.351
-101.772
-119.512
-146.716
-173.572
-199.885
-218.723
-233.039
-240.728
-245.403
-246.955
-226.364
-225.499
-222.888
-218.317
-210.525
-199.493
-186.813
-173.151
-163.92
-159.963
-164.258
-176.32
-191.623
-209.161
-223.583
-234.786
-241.871
-245.355
-247.025
-247.332
-228.911
-229.055
-228.692
-227.543
-224.351
-219.573
-212.776
-206.324
-201.024
-199.732
-202.961
-209.994
-220.077
-229.581
-238.105
-243.343
-246.334
-246.892
-246.7
-246.207
-230.022
-230.839
-231.932
-232.912
-232.877
-231.538
-229.198
-226.115
-224.23
-223.933
-226.371
-231.195
-236.841
-242.538
-246.476
-248.448
-248.558
-247.288
-245.874
-244.839
-230.26
-231.344
-233.071
-234.95
-236.195
-236.472
-235.73
-234.472
-233.614
-233.973
-236.106
-239.637
-243.851
-247.465
-249.743
-250.148
-249.089
-247.047
-245.1
-243.855
-130.222
-126.841
-120.095
-110.154
-97.5905
-83.2326
-69.0829
-56.8741
-49.5113
-48.2779
-54.3387
-66.5312
-83.1322
-101.587
-119.609
-135.548
-148.422
-157.863
-163.999
-166.96
-128.078
-124.207
-116.384
-104.893
-90.2118
-73.2958
-56.56
-41.7375
-32.8088
-30.8882
-37.673
-51.8151
-70.793
-92.1508
-112.664
-130.828
-145.426
-156.048
-162.995
-166.304
-123.908
-118.989
-108.983
-94.225
-74.9828
-52.8225
-29.9404
-9.95351
3.27265
6.48558
-1.80548
-19.6925
-44.6014
-71.5934
-98.0206
-120.717
-139.085
-152.243
-160.851
-164.932
-117.914
-111.548
-98.3968
-78.941
-53.3492
-23.1042
7.88103
36.5093
54.9026
60.4902
49.9152
25.5707
-6.80833
-43.1392
-77.0764
-106.681
-130.092
-146.8
-157.739
-162.846
-110.881
-102.655
-85.3714
-59.9382
-25.3069
15.0513
58.9434
98.2576
126.15
134.543
120.706
88.5789
43.5957
-3.80584
-49.7404
-87.7274
-118.481
-139.703
-153.772
-160.223
-103.356
-93.045
-71.3833
-38.9036
4.97053
58.2167
114.796
168.693
205.243
217.731
200.276
157.227
100.676
38.0354
-18.8694
-67.69
-105.491
-132.049
-149.299
-157.242
-97.366
-85.2214
-58.9261
-20.2759
34.2346
98.7253
171.323
238.283
286.954
302.854
281.391
229.45
157.233
82.0132
10.5578
-47.1377
-93.6345
-124.75
-145.602
-154.858
-93.4731
-79.6965
-50.2069
-5.87557
55.6702
130.748
213.522
292.326
347.116
365.116
341.669
282.608
202.611
114.631
34.8143
-32.1992
-83.9845
-119.69
-142.884
-153.396
-94.1768
-79.8679
-48.3961