/*--------------------------------*- C++ -*----------------------------------*\
| =========                 |                                                 |
| \\      /  F ield         | OpenFOAM: The Open Source CFD Toolbox           |
|  \\    /   O peration     | Version:  2412                                  |
|   \\  /    A nd           | Website:  www.openfoam.com                      |
|    \\/     M anipulation  |                                                 |
\*---------------------------------------------------------------------------*/
FoamFile
{
    version     2.0;
    format      ascii;
    arch        "LSB;label=32;scalar=64";
    class       volScalarField;
    location    "482";
    object      p;
}
// * * * * * * * * * * * * * * * * * * * * * * * * * * * * * * * * * * * * * //

dimensions      [0 2 -2 0 0 0 0];

internalField   nonuniform List<scalar> 
231232
(
1.75654
4.91343
7.48192
10.0386
12.6424
15.3017
17.9851
20.6164
23.0821
25.2414
26.9431
28.0499
28.4639
28.147
27.1296
25.5032
23.4005
20.9699
18.3517
15.6605
12.9744
10.3269
7.7117
5.07147
1.81427
4.91148
12.7319
19.2117
25.7681
32.4774
39.3666
46.3542
53.2389
59.7194
65.4174
69.9229
72.8598
73.9577
73.1121
70.4074
66.0965
60.5436
54.1524
47.3
40.2909
33.3314
26.5092
19.8028
13.1423
5.0735
7.47357
19.1977
28.9583
38.9049
49.1551
59.7618
70.6042
81.3692
91.5758
100.608
107.788
112.483
114.237
112.872
108.533
101.65
92.837
82.7629
72.0431
61.164
50.4477
40.0245
29.8503
19.8174
7.72038
10.0176
25.7241
38.8669
52.3626
66.3956
81.0589
96.1989
111.38
125.911
138.878
149.257
156.074
158.618
156.61
150.282
140.309
127.636
113.28
98.1529
82.9561
68.1386
53.8682
40.0638
26.5546
10.3486
12.6011
32.3836
49.049
66.3171
84.4658
103.651
123.696
144.036
163.725
181.478
195.805
205.268
208.794
205.967
197.14
183.333
165.954
146.478
126.196
106.066
86.6757
68.2193
50.557
33.4281
13.017
15.2312
39.2003
59.5528
80.8549
103.512
127.775
153.466
179.883
205.785
229.413
248.669
261.468
266.234
262.35
250.348
231.738
208.562
182.909
156.546
130.736
106.208
83.1659
61.379
40.4622
15.7331
17.8762
46.091
70.255
95.8178
123.353
153.245
185.347
218.83
252.118
282.875
308.21
325.172
331.487
326.257
310.269
285.712
255.489
222.48
189.038
156.772
126.548
98.5446
72.4021
47.5708
18.4638
20.46
52.8552
80.8426
110.77
143.419
179.354
218.502
259.933
301.717
340.845
373.443
395.441
403.633
396.746
375.911
344.228
305.711
264.229
222.817
183.453
147.112
113.907
83.3041
54.5469
21.1308
22.8704
59.1944
90.8388
125.023
162.769
204.861
251.351
301.253
352.293
400.73
441.552
469.323
479.673
470.855
444.44
404.668
356.913
306.188
256.277
209.511
166.936
128.548
93.5941
61.0831
23.6181
24.9689
64.7364
99.6365
137.677
180.13
228.022
281.571
339.788
400.106
458.06
507.434
541.285
553.916
543.035
510.721
462.52
405.308
345.311
287.051
233.166
184.717
141.542
102.648
66.7959
25.7831
26.608
69.0802
106.571
147.724
194.036
246.764
306.301
371.698
440.171
506.639
563.781
603.213
617.945
605.147
567.405
511.536
445.855
377.702
312.228
252.303
198.956
151.856
109.783
71.2728
27.4738
27.6545
71.8606
111.027
154.215
203.078
259.043
322.637
392.965
467.115
539.587
602.267
645.707
661.951
647.766
606.117
544.776
473.119
399.285
328.857
264.839
208.214
158.519
114.367
74.1378
28.553
28.0149
72.8196
112.567
156.464
206.223
263.329
328.366
400.458
476.654
551.303
616.004
660.912
677.71
663.015
619.935
556.595
482.769
406.888
334.687
269.214
211.433
160.827
115.951
75.1258
28.9247
27.6556
71.8636
111.032
154.221
203.087
259.054
322.651
392.982
467.136
539.61
602.291
645.733
661.976
647.791
606.14
544.796
473.136
399.3
328.869
264.848
208.222
158.524
114.371
74.1404
28.554
26.6102
69.086
106.58
147.737
194.052
246.785
306.327
371.73
440.21
506.682
563.827
603.261
617.993
605.193
567.448
511.574
445.888
377.729
312.25
252.321
198.971
151.867
109.79
71.2777
27.4757
24.9721
64.7446
99.6491
137.695
180.153
228.051
281.607
339.832
400.157
458.117
507.496
541.349
553.981
543.096
510.779
462.571
405.352
345.349
287.081
233.191
184.737
141.557
102.659
66.8029
25.7858
22.8742
59.2042
90.854
125.044
162.796
204.896
251.393
301.304
352.352
400.796
441.623
469.396
479.747
470.926
444.506
404.727
356.965
306.232
256.313
209.541
166.959
128.566
93.607
61.0915
23.6214
20.4642
52.866
80.8593
110.793
143.449
179.391
218.547
259.987
301.779
340.913
373.517
395.518
403.709
396.82
375.981
344.291
305.767
264.276
222.857
183.485
147.138
113.927
83.3183
54.5562
21.1344
17.8805
46.1021
70.272
95.841
123.383
153.283
185.392
218.883
252.179
282.942
308.281
325.246
331.561
326.33
310.338
285.775
255.544
222.527
189.078
156.805
126.574
98.5647
72.4168
47.5803
18.4676
15.2354
39.2111
59.5692
80.8772
103.541
127.811
153.508
179.933
205.841
229.475
248.735
261.536
266.303
262.417
250.411
231.796
208.614
182.954
156.584
130.767
106.233
83.1854
61.3932
40.4715
15.7367
12.6049
32.3935
49.064
66.3374
84.4917
103.683
123.734
144.08
163.775
181.532
195.863
205.328
208.855
206.026
197.196
183.385
166
146.519
126.23
106.094
86.6986
68.2371
50.5701
33.4366
13.0204
10.021
25.7327
38.8798
52.3801
66.4178
81.086
96.2308
111.417
125.952
138.923
149.304
156.124
158.668
156.659
150.329
140.352
127.675
113.314
98.182
82.9803
68.1582
53.8835
40.075
26.562
10.3514
7.47624
19.2046
28.9687
38.9189
49.1727
59.7831
70.6292
81.3977
91.6076
100.643
107.825
112.521
114.276
112.909
108.569
101.683
92.8671
82.7895
72.0659
61.183
50.4631
40.0366
29.8591
19.8232
7.72266
4.91335
12.7367
19.2191
25.7779
32.4897
39.3815
46.3715
53.2585
59.7411
65.4409
69.9479
72.8856
73.9838
73.1377
70.4319
66.1193
60.5643
54.1706
47.3157
40.304
33.3421
26.5175
19.809
13.1463
5.07505
1.75724
4.91539
7.4849
10.0426
12.6474
15.3076
17.992
20.6243
23.0908
25.2507
26.953
28.0602
28.4742
28.1572
27.1394
25.5123
23.4087
20.9772
18.358
15.6657
12.9787
10.3302
7.71414
5.07305
1.81483
4.6855
9.06707
13.368
17.9015
22.5121
27.2363
32.0124
36.702
41.103
44.9628
48.0094
49.9939
50.738
50.1725
48.3525
45.4443
41.6879
37.351
32.6853
27.8947
23.1213
18.4312
13.7909
9.36768
4.844
9.06307
13.9483
20.0578
26.7809
33.6514
40.7667
48.0183
55.1909
61.9693
67.9525
72.7011
75.8061
76.9712
76.0805
73.2274
68.6893
62.862
56.1787
49.0396
41.7638
34.5729
27.5828
20.6998
14.4157
9.37183
13.3517
20.0414
28.7945
38.5132
48.5211
58.9826
69.7432
80.4848
90.7253
99.8369
107.116
111.896
113.689
112.302
107.893
100.922
92.0356
81.9295
71.2319
60.4311
49.8558
39.6724
29.7214
20.7167
13.8078
17.8617
26.7316
38.4735
51.6152
65.2795
79.7141
94.7242
109.873
124.469
137.583
148.144
155.116
157.729
155.677
149.214
139.073
126.261
111.84
96.7427
81.67
67.0751
53.1697
39.7135
27.6337
18.4724
22.4345
33.5477
48.4104
65.198
82.8585
101.749
121.651
142.003
161.866
179.926
194.616
204.38
208.035
205.114
196.014
181.863
164.184
144.533
124.232
104.238
85.1324
67.159
49.9698
34.6798
23.2014
27.1049
40.584
58.7653
79.5027
101.606
125.581
151.209
177.812
204.16
228.446
248.435
261.827
266.839
262.76
250.206
230.888
207.063
180.96
154.4
128.637
104.385
81.8875
60.6548
41.952
28.0301
31.81
47.7304
69.3804
94.3294
121.296
150.981
183.215
217.22
251.446
283.482
310.201
328.272
335.038
329.432
312.393
286.486
254.993
221.037
187.055
154.635
124.597
97.1487
71.6053
49.336
32.8936
36.4119
54.7719
79.9373
109.24
141.363
177.262
216.877
259.375
302.887
344.292
379.33
403.28
412.259
404.691
381.987
347.908
307.123
263.897
221.389
181.525
145.19
112.491
82.4925
56.6098
37.6494
40.711
61.3964
89.9583
123.547
160.873
203.197
250.642
302.397
356.306
408.48
453.315
484.312
495.959
485.992
456.463
412.734
361.248
307.627
255.82
208.053
165.205
127.209
92.8241
63.4511
42.091
44.4588
67.2095
98.8243
136.333
178.522
226.99
282.108
343.168
407.809
471.401
526.877
565.675
580.296
567.622
530.506
476.271
413.423
349.061
287.898
232.384
183.306
140.357
101.963
69.453
45.9622
47.3898
71.7814
105.846
146.545
192.767
246.433
308.178
377.461
451.818
526.004
591.591
637.927
655.439
640.107
595.637
531.402
457.999
383.905
314.47
252.261
197.913
150.857
109.198
74.1724
48.9892
49.263
74.7156
110.375
153.174
202.088
259.271
325.576
400.614
481.901
563.792
636.862
688.845
708.53
691.187
641.198
569.552
488.465
407.426
332.199
265.384
207.468
157.671
113.865
77.2007
50.9233
49.9086
75.7291
111.944
155.478
205.34
263.774
331.712
408.832
492.652
577.388
653.247
707.345
727.844
709.745
657.686
583.277
499.35
415.773
338.45
269.985
210.801
160.039
115.48
78.2465
51.5898
49.2652
74.7189
110.38
153.181
202.097
259.283
325.591
400.632
481.923
563.817
636.889
688.874
708.559
691.215
641.223
569.574
488.483
407.442
332.212
265.394
207.475
157.677
113.869
77.2035
50.9252
47.394
71.7878
105.855
146.558
192.785
246.455
308.206
377.495
451.859
526.05
591.641
637.98
655.493
640.158
595.685
531.444
458.034
383.934
314.494
252.28
197.927
150.868
109.206
74.1777
48.9928
44.4646
67.2184
98.8374
136.351
178.546
227.021
282.146
343.214
407.864
471.463
526.944
565.745
580.367
567.69
530.57
476.327
413.471
349.101
287.93
232.41
183.326
140.372
101.974
69.4604
45.9673
40.718
61.4071
89.9741
123.569
160.901
203.233
250.686
302.45
356.368
408.55
453.391
484.392
496.04
486.07
456.535
412.798
361.304
307.674
255.858
208.084
165.229
127.227
92.8374
63.4601
42.0971
36.4196
54.7836
79.9545
109.263
141.394
177.301
216.924
259.431
302.952
344.364
379.408
403.362
412.341
404.772
382.062
347.975
307.182
263.946
221.43
181.558
145.217
112.511
82.507
56.6197
37.6562
31.8179
47.7424
69.398
94.3534
121.327
151.02
183.262
217.275
251.509
283.552
310.276
328.351
335.117
329.509
312.466
286.552
255.051
221.086
187.096
154.668
124.624
97.1693
71.6202
49.3462
32.9006
27.1125
40.5957
58.7822
79.5257
101.636
125.617
151.253
177.863
204.218
228.511
248.503
261.899
266.912
262.831
250.272
230.948
207.117
181.006
154.439
128.67
104.41
81.9074
60.6693
41.9619
28.0369
22.4415
33.5584
48.4259
65.2189
82.8852
101.782
121.69
142.048
161.917
179.982
194.676
204.442
208.098
205.175
196.072
181.916
164.232
144.575
124.267
104.267
85.1558
67.1771
49.9832
34.689
23.2076
17.8677
26.7409
38.4869
51.6332
65.3023
79.742
94.7571
109.911
124.511
137.629
148.193
155.168
157.78
155.728
149.263
139.117
126.301
111.875
96.7725
81.6948
67.0951
53.1854
39.725
27.6417
18.4778
13.3566
20.0489
28.8053
38.5277
48.5392
59.0046
69.7691
80.5142
90.7582
99.8728
107.154
111.936
113.729
112.341
107.93
100.956
92.0667
81.9568
71.2553
60.4506
49.8717
39.6849
29.7305
20.723
13.8121
9.0666
13.9538
20.0657
26.7916
33.6647
40.7827
48.037
55.2122
61.9929
67.9782
72.7283
75.8343
76.9996
76.1084
73.254
68.714
62.8843
56.1984
49.0565
41.7779
34.5844
27.5918
20.7064
14.4203
9.37483
4.6874
9.07079
13.3735
17.9089
22.5213
27.2473
32.0252
36.7165
41.1191
44.9802
48.0279
50.0131
50.7574
50.1916
48.3708
45.4613
41.7034
37.3646
32.697
27.9045
23.1292
18.4374
13.7955
9.37074
4.84558
8.80702
13.1551
19.2748
25.6622
32.164
38.879
45.6873
52.3887
58.6925
64.2341
68.6183
71.4805
72.5579
71.7479
69.1316
64.9537
59.5658
53.3568
46.6902
39.8598
33.0718
26.4539
19.9102
13.6087
9.11435
13.1475
13.4903
19.5463
25.7221
32.0918
38.8461
45.8041
52.7584
59.3964
65.3107
70.0447
73.1627
74.3427
73.4571
70.608
66.0969
60.3456
53.8049
46.8828
39.8969
33.0625
26.5717
20.2349
13.9844
13.6165
19.2475
19.5283
28.4828
37.5672
47.0288
57.1673
67.7235
78.3907
88.6823
97.9433
105.418
110.369
112.242
110.817
106.274
99.134
90.1141
79.9625
69.3367
58.7325
48.4695
38.8246
29.4997
20.2534
19.9385
25.5986
25.6684
37.5231
49.6522
62.4377
76.3146
90.9585
105.961
120.632
134.002
144.91
152.188
154.94
152.807
146.088
135.633
122.582
108.089
93.1308
78.4113
64.3587
51.3223
38.8702
26.6271
26.5197
32.043
31.9798
46.9068
62.3489
78.8624
97.0537
116.56
136.876
157.073
175.766
191.223
201.632
205.566
202.449
192.773
177.9
159.607
139.622
119.342
99.7204
81.2911
64.4503
48.5953
33.178
33.1968
38.6764
38.6498
56.9286
76.0852
96.8999
120.204
145.642
172.633
199.973
225.738
247.38
262.119
267.692
263.176
249.375
228.464
203.183
176.08
149.105
123.497
99.8789
78.6477
58.9785
40.0992
40.0687
45.3777
45.4955
67.3255
90.53
116.177
145.394
177.911
213.123
249.545
284.578
314.546
335.229
343.061
336.571
317.064
287.991
253.524
217.352
182.117
149.36
119.737
93.5723
69.7467
47.2009
47.0092
51.9471
52.3093
77.7898
105.272
136.182
172.032
212.744
257.797
305.461
352.351
393.294
421.987
432.888
423.664
396.419
356.544
310.295
262.876
217.742
176.699
140.337
108.799
80.5814
54.2676
53.8115
58.0974
58.7817
87.8386
119.625
155.988
198.911
248.646
304.904
365.828
427.198
481.972
521.02
535.924
523.074
485.771
432.242
371.572
310.867
254.448
204.276
160.724
123.618
90.9827
60.9785
60.1782
63.4704
64.5123
96.8266
132.632
174.223
224.119
283.025
351.057
426.408
504.102
575.021
626.481
646.237
628.93
579.517
510.006
433.053
357.874
289.587
230.13
179.488
137.043
100.283
66.9188
65.7393
67.6806
69.0548
104.014
143.151
189.179
245.137
312.238
391.112
480.179
573.946
661.287
725.706
750.579
728.521
666.419
580.621
487.612
398.66
319.437
251.681
194.874
147.897
107.718
71.6264
70.0959
70.3753
71.9877
108.684
150.046
199.087
259.239
332.128
418.844
518.094
624.124
724.335
799.095
828.073
802.175
729.924
631.345
526.075
426.891
339.756
266.136
205.065
155.01
112.549
74.6652
72.884
71.3048
73.0042
110.309
152.455
202.569
264.229
339.223
428.828
531.887
642.573
747.735
826.503
857.074
829.682
753.491
649.992
540.065
437.053
347.002
271.249
208.644
157.494
114.228
75.7181
73.8454
70.3785
71.9913
108.69
150.053
199.098
259.252
332.145
418.865
518.12
624.155
724.37
799.132
828.112
802.212
729.958
631.373
526.098
426.909
339.77
266.147
205.073
155.016
112.553
74.6681
72.8868
67.6868
69.0616
104.024
143.165
189.198
245.162
312.27
391.152
480.226
574.001
661.35
725.774
750.648
728.588
666.48
580.672
487.654
398.694
319.464
251.702
194.89
147.909
107.727
71.6319
70.1013
63.479
64.5218
96.841
132.652
174.249
224.153
283.068
351.11
426.471
504.174
575.103
626.569
646.327
629.016
579.596
510.074
433.11
357.92
289.624
230.158
179.51
137.059
100.295
66.9265
65.7468
58.1078
58.7931
87.8558
119.649
156.018
198.95
248.695
304.964
365.898
427.28
482.063
521.117
536.023
523.169
485.858
432.318
371.636
310.92
254.491
204.309
160.75
123.638
90.9969
60.9879
60.1873
51.9585
52.3217
77.8084
105.298
136.215
172.074
212.796
257.859
305.534
352.434
393.385
422.084
432.986
423.759
396.506
356.621
310.361
262.931
217.787
176.735
140.365
108.82
80.5969
54.2779
53.8215
45.3894
45.5082
67.3445
90.5557
116.21
145.436
177.961
213.183
249.614
284.657
314.632
335.319
343.153
336.659
317.147
288.064
253.588
217.406
182.161
149.396
119.765
93.5939
69.7626
47.2114
47.0195
38.6877
38.6621
56.9469
76.1098
96.9314
120.243
145.689
172.689
200.036
225.809
247.457
262.2
267.773
263.255
249.449
228.531
203.241
176.13
149.146
123.531
99.9058
78.6686
58.9939
40.1095
40.0787
32.0534
31.9911
46.9235
62.3713
78.8908
97.0887
116.602
136.925
157.128
175.828
191.289
201.701
205.635
202.517
192.836
177.958
159.658
139.666
119.379
99.7509
81.3156
64.4693
48.6095
33.1874
33.206
25.6077
25.6783
37.5376
49.6715
62.4621
76.3444
90.9938
106.002
120.678
134.053
144.964
152.245
154.997
152.863
146.14
135.681
122.625
108.127
93.1624
78.4375
64.3798
51.3388
38.8825
26.6353
26.5277
19.2549
19.5364
28.4946
37.5828
47.0483
57.1909
67.7514
78.4228
88.7183
97.9828
105.46
110.413
112.286
110.86
106.315
99.1715
90.1478
79.9919
69.3617
58.7534
48.4864
38.8379
29.5096
20.2601
19.9448
13.1528
13.4961
19.5548
25.7333
32.1057
38.8629
45.8239
52.781
59.4216
65.3382
70.0738
73.1929
74.373
73.4867
70.6362
66.123
60.3691
53.8255
46.9004
39.9116
33.0745
26.5811
20.2419
13.9892
13.6211
8.81063
13.1607
19.283
25.6731
32.1776
38.8953
45.7064
52.4105
58.7167
64.2604
68.6463
71.5095
72.5872
71.7767
69.1591
64.9793
59.589
53.3773
46.7079
39.8746
33.0838
26.4633
19.9172
13.6134
9.11745
13.6532
16.1494
24.0924
31.7564
39.6522
47.8828
56.256
64.5322
72.3485
79.2466
84.7244
88.3135
89.6725
88.6672
85.403
80.1965
73.4996
65.8062
57.5741
49.1711
40.8447
32.7991
24.9366
16.7402
14.1488
16.1367
10.8282
17.2163
21.9531
27.1744
32.8868
38.8674
44.9643
50.8908
56.2618
60.6272
63.5403
64.6601
63.8491
61.2164
57.0802
51.8733
46.0413
39.9718
33.9589
28.1628
22.8209
17.9354
11.3039
16.7533
24.0523
17.1987
27.5743
35.4278
44.1365
53.6954
63.7884
74.173
84.3635
93.6835
101.318
106.439
108.403
106.95
102.292
95.0313
85.9752
75.9321
65.5846
55.4317
45.7306
36.8206
28.722
17.9536
24.9781
31.6668
21.8984
35.377
45.5623
57.0695
69.9252
83.7483
98.2382
112.723
126.205
137.418
145.018
147.933
145.722
138.752
128.041
114.902
100.597
86.1384
72.2194
59.163
47.3828
36.8731
22.8774
32.8917
39.4852
27.0595
43.9978
56.971
71.896
88.8821
107.526
127.488
147.874
167.243
183.642
194.901
199.217
195.847
185.426
169.677
150.736
130.556
110.606
91.8128
74.5502
59.2646
45.8739
28.2815
41.0171
47.6068
32.6848
53.4254
69.6713
88.712
110.816
135.634
162.841
191.308
219.002
242.949
259.642
266.049
260.896
245.297
222.173
194.993
166.746
139.509
114.465
91.9883
72.4815
55.7104
34.1675
49.4558
55.8372
38.5487
63.3384
83.2729
107.1
135.356
167.877
204.47
243.812
283.132
317.979
342.717
352.24
344.358
321.027
287.199
248.473
209.34
172.646
139.796
111.046
86.6291
66.049
40.3008
58.0059
63.9374
44.4989
73.4925
97.4707
126.71
162.161
204.035
252.481
306.133
361.387
411.729
448.241
462.372
450.367
415.635
366.527
311.929
258.442
209.788
167.448
131.358
101.389
76.6341
46.5216
66.419
71.549
50.2512
83.4054
111.595
146.649
190.093
242.766
305.47
377.098
453.255
524.784
577.928
598.656
580.636
529.706
459.628
384.162
312.611
249.551
196.246
151.999
116.064
86.9632
52.5331
74.323
78.2222
55.4275
92.4111
124.661
165.485
217.127
281.296
359.817
452.267
553.754
652.092
727.11
756.677
730.475
658.133
561.448
460.644
368.143
289.09
224.104
171.488
129.633
96.3427
57.9403
81.2512
83.4678
59.5891
99.7129
135.424
181.298
240.326
315.211
409.03
522.486
650.66
778.764
878.973
918.893
882.989
785.893
659.601
532.065
418.409
323.875
247.998
187.84
140.805
103.945
62.2859
86.6962
86.8337
62.305
104.509
142.581
191.966
256.247
338.959
444.298
574.108
723.9
877.028
999.054
1048.03
1003.57
884.979
733.763
584.554
454.418
348.222
264.389
198.867
148.231
108.936
65.1209
90.1895
87.9963
63.252
106.187
145.101
195.753
261.953
347.565
457.247
593.342
751.634
914.811
1045.71
1098.36
1050.41
923.071
761.84
604.105
467.634
357.042
270.26
202.78
150.844
110.682
66.1089
91.3958
86.8379
62.3088
104.515
142.59
191.978
256.263
338.979
444.325
574.142
723.941
877.078
999.11
1048.09
1003.62
885.026
733.801
584.584
454.441
348.239
264.401
198.877
148.237
108.941
65.1238
90.1931
83.476
59.5962
99.7247
135.441
181.32
240.355
315.249
409.079
522.547
650.735
778.853
879.071
918.994
883.084
785.976
659.67
532.12
418.451
323.907
248.022
187.858
140.818
103.954
62.2914
86.7033
78.2335
55.4373
92.4272
124.683
165.515
217.167
281.347
359.881
452.345
553.849
652.202
727.231
756.801
730.593
658.237
561.536
460.715
368.198
289.132
224.137
171.512
129.651
96.3557
57.948
81.261
71.5627
50.2629
83.4245
111.622
146.684
190.138
242.823
305.542
377.185
453.358
524.902
578.055
598.786
580.76
529.817
459.723
384.239
312.673
249.6
196.284
152.027
116.086
86.9787
52.5423
74.3348
63.9524
44.5116
73.5132
97.4988
126.747
162.208
204.094
252.554
306.219
361.488
411.842
448.363
462.496
450.486
415.743
366.62
312.007
258.506
209.838
167.487
131.389
101.412
76.651
46.5317
66.4321
55.8525
38.5617
63.3594
83.301
107.137
135.402
167.934
204.538
243.893
283.225
318.082
342.826
352.351
344.466
321.125
287.286
248.547
209.4
172.696
139.835
111.076
86.6522
66.0662
40.3111
58.0193
47.6217
32.6973
53.4455
69.698
88.7464
110.859
135.686
162.903
191.381
219.084
243.039
259.737
266.145
260.989
245.383
222.25
195.06
166.801
139.554
114.502
92.0171
72.5037
55.727
34.1775
49.4688
39.4989
27.0709
44.0161
56.9952
71.9268
88.9202
107.572
127.542
147.936
167.312
183.718
194.98
199.297
195.925
185.499
169.742
150.793
130.605
110.646
91.8455
74.5762
59.2848
45.8891
28.2907
41.0291
31.6787
21.9084
35.3929
45.5832
57.0959
69.9576
83.787
98.2833
112.774
126.262
137.479
145.082
147.997
145.785
138.811
128.094
114.949
100.638
86.1724
72.2473
59.1854
47.4003
36.8864
22.8855
32.9021
24.0619
17.207
27.5875
35.4449
44.158
53.7215
63.8194
74.2088
84.4039
93.728
101.366
106.488
108.453
106.999
102.337
95.0733
86.0126
75.9645
65.612
55.4544
45.7489
36.835
28.7329
17.9603
24.9865
16.1435
10.8338
17.225
21.9643
27.1884
32.9038
38.8874
44.9873
50.9166
56.2901
60.6573
63.5715
64.6915
63.8797
61.2452
57.1067
51.897
46.0619
39.9893
33.9735
28.1746
22.8303
17.9426
11.3083
16.7591
13.6589
16.1566
24.1032
31.7707
39.6701
47.9043
56.2812
64.5609
72.3806
79.2815
84.7616
88.3521
89.7115
88.7055
85.4395
80.2303
73.5302
65.8332
57.5973
49.1905
40.8605
32.8115
24.9459
16.7463
14.1537
19.0184
18.022
28.0158
36.342
45.2401
54.5693
64.0953
73.564
82.5529
90.5274
96.8925
101.084
102.685
101.529
97.7454
91.7191
83.9941
75.1558
65.7393
56.1745
46.7256
37.6425
29.0828
18.7407
19.7442
18.0027
6.75415
13.6887
16.2274
19.986
24.186
28.7062
33.4783
38.2594
42.7178
46.4351
48.9709
49.9733
49.2954
47.0513
43.5682
39.2729
34.5808
29.829
25.2705
20.9825
17.0995
14.4379
7.18919
18.7607
27.961
13.6736
25.9695
31.8132
39.6453
48.2668
57.5205
67.2552
77.0038
86.1021
93.697
98.8762
100.902
99.4676
94.8185
87.646
78.8384
69.2449
59.5403
50.2108
41.4246
33.3605
27.2792
14.4536
29.1396
36.223
16.1741
31.7533
38.7679
48.6428
59.7983
72.0962
85.3904
99.0657
112.157
123.329
131.067
134.096
131.877
124.855
114.239
101.514
88.017
74.7349
62.3144
50.9274
40.7427
33.4225
17.1547
37.7655
45.0225
19.8715
39.4857
48.5346
61.5082
76.5116
93.4872
112.328
132.239
151.806
168.895
180.929
185.637
182.045
170.983
154.625
135.513
115.796
96.9294
79.7584
64.4288
51.0392
41.5897
21.1011
46.9504
54.2133
23.9825
47.9581
59.5183
76.3224
96.2631
119.483
146.021
174.94
204.228
230.512
249.396
256.795
250.919
233.334
207.986
179.238
150.503
123.868
100.345
79.9541
62.604
50.5301
25.481
56.542
63.5583
28.3826
57.0062
71.5689
93.0094
119.168
150.59
187.683
229.51
273.35
313.953
343.832
355.592
345.9
317.74
278.308
235.076
193.381
156.07
124.193
97.4232
75.2801
60.0717
30.1639
66.2934
72.8041
33.002
66.4764
84.5339
111.449
145.243
187.178
238.421
298.407
363.743
426.537
474.069
492.929
476.867
431.586
370.223
305.522
245.551
193.903
151.308
116.703
88.9022
70.0496
35.0733
75.9395
81.5333
37.6003
75.9039
97.7981
130.842
173.531
228.273
297.604
382.049
477.97
573.823
648.848
678.99
652.594
580.473
486.31
390.984
306.351
236.354
180.692
136.956
102.823
79.9743
39.9542
85.0452
89.2221
41.8523
84.636
110.409
149.782
202.026
271.138
361.79
476.696
612.704
754.502
869.607
916.643
874.509
763.046
623.167
487.622
372.236
280.59
210.258
156.715
116.045
89.1593
44.4623
93.0641
95.2922
45.3522
91.8414
121.057
166.17
227.392
310.56
423.104
570.768
752.504
950.257
1117.02
1186.51
1123.17
960.777
765.093
583.611
435.12
321.236
236.552
173.794
127.199
96.7326
48.1691
99.3937
99.2002
47.6772
96.6398
128.276
177.494
245.318
339.164
468.96
643.646
864.993
1114.07
1330.67
1422.34
1337.85
1126.18
879.232
657.929
482.118
350.705
255.12
185.585
134.754
101.773
50.6295
103.468
100.553
48.496
98.3318
130.847
181.569
251.852
349.747
486.231
671.671
909.292
1180.22
1418.6
1520.02
1426.18
1192.95
924.165
686.493
499.808
361.602
261.882
189.826
137.442
103.549
51.4952
104.878
99.2056
47.6811
96.6468
128.286
177.508
245.337
339.19
468.996
643.694
865.055
1114.15
1330.76
1422.44
1337.93
1126.25
879.287
657.97
482.147
350.726
255.135
185.596
134.762
101.778
50.6323
103.473
95.3024
45.3595
91.8548
121.076
166.196
227.427
310.607
423.168
570.852
752.614
950.391
1117.17
1186.67
1123.31
960.9
765.188
583.683
435.173
321.274
236.58
173.814
127.213
96.743
48.1745
99.4023
89.2363
41.8623
84.6543
110.434
149.816
202.072
271.199
361.871
476.8
612.835
754.661
869.786
916.826
874.681
763.192
623.284
487.712
372.304
280.64
210.295
156.742
116.064
89.1737
44.4697
93.0761
81.5503
37.6121
75.9254
97.8272
130.881
173.583
228.341
297.691
382.159
478.106
573.983
649.024
679.171
652.765
580.621
486.433
391.08
306.425
236.41
180.734
136.988
102.846
79.9914
39.9631
85.0597
72.8226
33.0148
66.4994
84.5647
111.49
145.296
187.246
238.507
298.513
363.871
426.684
474.228
493.092
477.021
431.724
370.339
305.616
245.625
193.96
151.352
116.737
88.9268
70.0681
35.083
75.9555
63.5773
28.3955
57.0294
71.5995
93.0496
119.219
150.655
187.763
229.606
273.462
314.08
343.969
355.731
346.033
317.86
278.412
235.162
193.45
156.124
124.236
97.456
75.3048
60.0905
30.1737
66.3097
54.2316
23.9949
47.9802
59.5471
76.3598
96.3104
119.541
146.092
175.023
204.324
230.619
249.51
256.91
251.03
233.436
208.074
179.313
150.565
123.918
100.385
79.9849
62.6275
50.5481
25.4906
56.5579
45.0393
19.8828
39.5058
48.5606
61.5415
76.5531
93.5376
112.388
132.309
151.885
168.982
181.021
185.73
182.135
171.066
154.699
135.577
115.849
96.973
79.7935
64.4565
51.0605
41.6062
21.1099
46.965
36.2377
16.184
31.7706
38.7902
48.6711
59.8333
72.1382
85.4398
99.1225
112.221
123.398
131.14
134.169
131.948
124.921
114.299
101.566
88.061
74.7715
62.3441
50.9511
40.761
33.4368
17.1624
37.7782
27.973
13.6821
25.9842
31.832
39.669
48.2957
57.5548
67.2952
77.0493
86.1524
93.7513
98.9328
100.959
99.5232
94.8707
87.6935
78.8802
69.2809
59.5705
50.2357
41.4446
33.3761
27.2914
14.4603
29.15
18.0108
6.75915
13.6975
16.2385
19.9999
24.2028
28.7261
33.5012
38.2854
42.7464
46.4658
49.0028
50.0053
49.3264
47.0805
43.5947
39.2963
34.6009
29.846
25.2844
20.9938
17.1083
14.4449
7.19295
18.7676
19.0267
18.0307
28.0294
36.3597
45.2623
54.596
64.1267
73.5999
82.5931
90.5713
96.9393
101.132
102.734
101.577
97.7911
91.7615
84.0323
75.1894
65.7681
56.1985
46.7451
37.6579
29.0944
18.7481
19.7514
24.6592
18.7113
31.0434
39.3192
48.8656
58.8386
69.0701
79.3035
89.0725
97.7913
104.794
109.434
111.228
109.978
105.835
99.2438
90.8247
81.2343
71.0602
60.7793
50.661
40.8898
32.3548
19.5507
25.6596
18.6835
1.80587
9.29647
9.00749
11.1374
13.4023
16.0455
19.0533
22.2523
25.4039
28.1593
30.1171
30.9338
30.4587
28.8045
26.2875
23.2961
20.1787
17.182
14.4932
12.1369
9.87223
10.078
2.18767
19.5794
30.9716
9.28577
23.5874
26.6152
33.4108
40.564
48.4537
56.9688
65.6979
74.0496
81.1898
86.1673
88.1713
86.8512
82.4812
75.8168
67.7837
59.2163
50.7218
42.737
35.3958
28.3258
25.0835
10.0891
32.4291
39.167
8.95739
26.5436
29.1354
36.9636
45.4815
55.3068
66.3858
78.2293
90.0113
100.428
107.867
110.871
108.797
102.17
92.3659
80.9693
69.2956
58.2029
48.2226
39.4423
31.2538
28.3999
9.92434
41.0471
48.5916
11.0263
33.227
36.8472
47.3834
59.2295
73.3191
89.7066
107.804
126.386
143.287
155.603
160.566
156.925
145.738
129.653
111.548
93.6209
77.1587
62.8163
50.5907
39.563
35.5863
12.2524
50.9443
58.3943
13.2012
40.211
45.1764
59.0194
75.1993
95.1329
119.163
146.726
176.104
203.751
224.414
232.75
226.277
207.161
180.57
151.741
124.304
100.084
79.7506
63.0341
48.5388
43.1026
14.702
61.2384
68.4033
15.7214
47.867
54.7281
72.7857
94.7787
122.896
158.128
200.261
247.093
292.938
328.247
342.573
330.887
297.691
253.177
206.927
164.798
129.183
100.451
77.7114
58.8024
51.3293
17.5182
71.7489
78.3624
18.5714
56.0792
65.4389
88.7176
118.276
157.542
208.815
272.993
347.811
424.415
485.628
510.742
489.388
431.049
356.07
281.779
217.365
165.405
125.222
94.6453
70.2763
60.137
20.6784
82.2059
87.8114
21.5789
64.4383
76.8165
106.215
145.099
198.799
272.016
368.341
486.767
614.741
721.375
765.869
726.722
623.952
497.875
379.763
282.789
208.44
153.426
113.193
82.432
69.0869
23.9939
92.126
96.1778
24.5119
72.3647
88.046
124.059
173.522
244.425
345.368
485.102
666.641
872.89
1054.13
1131.84
1061.6
885.418
681.231
499.591
358.592
255.935
183.241
132.061
94.3993
77.5591
27.2111
100.908
102.815
27.0352
79.0494
97.8553
140.122
200.037
288.761
419.999
610.601
870.019
1185.01
1477.64
1607.69
1487.69
1201.35
888.36
628.207
435.6
302.004
210.998
149.008
104.83
84.6926
29.9674
107.874
107.106
28.7672
83.5805
104.687
151.582
219.505
322.406
478.907
714.111
1047.22
1472.89
1889.06
2079.64
1901.42
1492.53
1068.67
734.175
496.302
336.909
231.343
161.077
112.08
89.5214
31.8536
112.377
108.595
29.3884
85.1953
107.158
155.784
226.764
335.198
501.83
755.492
1120.62
1597.3
2073.05
2293.42
2086.38
1618.3
1143.31
776.505
519.9
350.165
238.919
165.496
114.7
91.2401
32.5286
113.938
107.113
28.7712
83.5886
104.698
151.598
219.528
322.439
478.956
714.18
1047.32
1473.02
1889.21
2079.81
1901.57
1492.65
1068.75
734.231
496.34
336.934
231.36
161.089
112.089
89.5274
31.8564
112.382
102.828
27.0427
79.0647
97.8762
140.152
200.079
288.822
420.084
610.723
870.184
1185.23
1477.9
1607.95
1487.92
1201.53
888.497
628.304
435.667
302.05
211.03
149.031
104.845
84.7041
29.9726
107.885
96.1948
24.5221
72.3854
88.074
124.098
173.577
244.501
345.473
485.245
666.831
873.128
1054.4
1132.12
1061.86
885.629
681.391
499.707
358.675
255.995
183.283
132.09
94.4202
77.5748
27.2181
100.922
87.8317
21.5908
64.4624
76.8487
106.26
145.16
198.881
272.126
368.485
486.951
614.966
721.627
766.128
726.962
624.154
498.033
379.883
282.878
208.504
153.473
113.227
82.4564
69.1054
24.0023
92.1431
78.3845
18.5841
56.1049
65.4726
88.7634
118.337
157.622
208.918
273.125
347.974
424.607
485.841
510.96
489.593
431.226
356.213
281.891
217.451
165.469
125.27
94.6809
70.3022
60.157
20.6875
82.2247
68.4258
15.7341
47.8925
54.7611
72.8299
94.8361
122.97
158.22
200.376
247.231
293.097
328.42
342.748
331.053
297.838
253.3
207.026
164.877
129.244
100.497
77.7463
58.8282
51.3494
17.5274
71.7682
58.4161
13.2133
40.2352
45.2073
59.06
75.2512
95.1978
119.243
146.823
176.218
203.878
224.551
232.889
226.41
207.281
180.673
151.826
124.372
100.138
79.7929
63.0666
48.5632
43.1219
14.7108
61.2571
48.6116
11.0373
33.2489
36.8748
47.4192
59.2745
73.3746
89.7735
107.883
126.476
143.387
155.71
160.674
157.029
145.832
129.736
111.618
93.6789
77.2056
62.8535
50.6198
39.585
35.6039
12.2605
50.9615
39.1845
8.96687
26.5624
29.1588
36.9937
45.5188
55.352
66.4396
78.2918
90.0819
100.505
107.948
110.953
108.876
102.243
92.431
81.0253
69.3425
58.2414
48.2536
39.4669
31.2726
28.4151
9.93137
41.0621
30.9862
9.29434
23.6038
26.6356
33.4368
40.5958
48.4918
57.0134
65.7489
74.1066
81.2515