/*--------------------------------*- C++ -*----------------------------------*\
| =========                 |                                                 |
| \\      /  F ield         | OpenFOAM: The Open Source CFD Toolbox           |
|  \\    /   O peration     | Version:  2412                                  |
|   \\  /    A nd           | Website:  www.openfoam.com                      |
|    \\/     M anipulation  |                                                 |
\*---------------------------------------------------------------------------*/
FoamFile
{
    version     2.0;
    format      ascii;
    arch        "LSB;label=32;scalar=64";
    class       surfaceScalarField;
    location    "1500";
    object      phi;
}
// * * * * * * * * * * * * * * * * * * * * * * * * * * * * * * * * * * * * * //

dimensions      [0 3 -1 0 0 0 0];

oriented        oriented;

internalField   nonuniform List<scalar> 
379149
(
56.979
58.1052
-3240.08
110.273
61.8392
-3240.13
156.378
69.5704
-3240.68
190.785
80.6415
-3240.05
210.279
95.5127
-3240.01
210.431
112.605
-3237.76
189.101
132.064
-3235.73
144.896
150.707
-3231.5
79.6853
168.216
-3228
3.40124
175.673
-3224.39
-72.8481
175.135
-3223.89
-138.389
167.413
-3226.87
-184.693
152.116
-3230.81
-208.524
134.452
-3235.62
-210.347
115.081
-3238.26
-192.032
97.6634
-3240.98
-158.014
82.3754
-3241.39
-111.704
70.94
-3242.25
-57.7898
62.9369
-3241.85
59.0864
-3241.88
60.6422
112.603
-3240.14
117.587
120.036
-3240.14
167.102
135.379
-3240.33
204.581
157.678
-3239.52
226.114
187.645
-3238.67
227.039
222.546
-3235.87
204.503
262.16
-3232.56
157.766
299.681
-3227.24
88.9422
334.947
-3222.91
8.55649
350.241
-3219.18
-77.1388
354.691
-3218.86
-151.521
338.625
-3221.83
-201.525
304.273
-3227.15
-226.785
267.371
-3232.66
-227.418
227.255
-3236.54
-206.755
191.698
-3239.7
-169.363
160.899
-3240.92
-119.42
137.924
-3241.93
-61.6431
122.042
-3241.88
114.381
-3241.94
68.4152
159.873
-3240.69
132.994
170.8
-3240.34
190.316
193.787
-3240.73
234.834
227.006
-3238.85
262.907
272.82
-3238.25
268.127
326.219
-3233.89
246.699
389.613
-3231.02
194.245
451.904
-3224.77
105.356
519.808
-3220.97
-0.403411
546.11
-3215.11
-97.9608
538.829
-3211.58
-181.372
513.036
-3216
-237.439
456.108
-3220.77
-264.16
398.266
-3229.17
-262.548
333.992
-3233.35
-236.498
279.392
-3238.74
-192.573
231.919
-3239.95
-134.978
197.541
-3242.21
-69.5267
173.613
-3242.02
162.327
-3242.47
79.4944
195.464
-3240.09
155.187
209.679
-3239.57
223.325
239.482
-3238.83
278.01
283.355
-3236.04
313.545
345.11
-3232.83
322.279
418.16
-3225.68
295.753
509.447
-3218.31
230.388
598.712
-3206.44
128.084
695.365
-3198.25
16.6849
723.287
-3190.78
-110.083
729.67
-3189.07
-228.888
703.219
-3196.38
-295.399
602.554
-3204.94
-324.27
519.427
-3217.29
-317.318
427.619
-3225.58
-282.383
352.831
-3233.38
-227.377
289.093
-3237.18
-158.283
243.771
-3240.32
-81.1345
212.744
-3241.28
198.075
-3241.88
94.3783
216.045
-3239.96
185.121
232.593
-3238.66
269.408
268.239
-3238.05
340.111
320.427
-3232.78
392.688
396.913
-3229.38
417.321
486.863
-3218.34
402.948
610.49
-3211.67
334.156
739.045
-3196.54
176.814
927.388
-3199.68
-8.37113
981.305
-3197.83
-149.935
909.647
-3163.41
-298.157
897.791
-3171.35
-378.079
738.606
-3181.13
-408.203
628.443
-3203.89
-392.637
501.375
-3214.32
-343.923
407.577
-3228.46
-273.892
327.126
-3233.06
-188.788
272.921
-3239.25
-96.3855
235.536
-3240.2
218.375
-3241.69
111.694
217.049
-3237.7
220.108
235.106
-3235.93
323.131
273.721
-3233.51
412.504
331.679
-3225.62
481.41
420.76
-3217.75
515.271
525.669
-3197.67
485.749
695.879
-3180.87
383.513
867.582
-3151.3
164.574
1186.82
-3165.49
-23.6323
1225.79
-3181.28
-186.815
1050.89
-3103.06
-423.092
1139.47
-3130.4
-502.87
829.809
-3136.42
-525.501
701.875
-3175.8
-491.781
536.828
-3194.17
-421.994
428.92
-3216.13
-330.701
336.539
-3225.71
-225.601
277.246
-3234.43
-114.442
236.697
-3237.32
218.231
-3239.3
130.903
196.426
-3235.28
259.317
213.92
-3232.23
385.97
251.586
-3229.52
502.09
308.03
-3217.47
608.804
397.012
-3207.97
698.984
490.486
-3180
779.886
662.456
-3172.48
854.366
819.751
-3151.65
568.547
1566.15
-3218.51
-84.2503
1979.49
-3225.9
-254.759
1132.17
-3035.77
-593.548
1429.64
-3076.37
-666.135
855.161
-3077.76
-668.3
724.368
-3145.33
-609.5
520.353
-3167.33
-510.37
408.763
-3203.97
-394.695
311.553
-3215.69
-265.722
253.305
-3230.03
-134.309
213.557
-3233.27
195.653
-3236.73
149.863
152.421
-3230.86
297.963
167.961
-3227.14
449.571
197.376
-3222.4
588.89
250.424
-3206.71
729.105
323.325
-3191.53
820.838
426.662
-3152.91
929.786
584.208
-3155.7
854.795
785.528
-3015.78
-702.272
2565.38
-2567.16
-1957.98
1565.9
-1455.69
-1071.67
-671.191
-2207.95
-931.643
1284.68
-3120.07
-938.503
743.527
-3006.51
-839.545
605.956
-3105.55
-746.307
434.185
-3132.07
-603.758
325.621
-3184.41
-460.273
246.345
-3203.28
-305.786
195.7
-3221.88
-153.772
164.179
-3227.64
148.799
-3231.92
165.479
88.1945
-3226.25
329.026
100.425
-3221.01
500.809
115.81
-3215.22
661.644
157.683
-3193.09
829.502
203.293
-3172.82
972.568
289.454
-3130.86
1177.42
414.327
-3159.97
1703.1
107.447
-2972.61
664.683
1899.73
-1420.93
-1807.15
-1166.74
2079.48
-1864.99
-2953.73
-784.625
-1251.21
805.225
-3259.33
-1203.36
453.858
-2883.17
-1004.83
339.693
-3057.27
-874.121
270.279
-3091.8
-685.26
178.273
-3166.51
-518.07
143.98
-3189.83
-339.307
106.842
-3214.91
-170.367
91.7878
-3221.55
80.7715
-3227.34
176.582
8.83579
-3222.22
355.979
12.5199
-3216.49
544.562
10.6038
-3208.38
742.893
18.9145
-3184.56
952.831
20.9475
-3152.59
1186.63
25.1642
-3094.51
1434.52
75.171
-3033.73
1731.39
-343.568
-2970.86
2820.49
161.672
-2476.05
1491.27
-2006.92
-955.594
-1333.39
-2235.3
-1018.78
-1380.97
348.728
-2620.92
-1301.93
-65.0939
-2685.1
-1133.67
22.7729
-2976.34
-945.595
18.0673
-3060.86
-743.018
-2.49241
-3146.81
-551.871
8.07479
-3180.24
-360.949
-1.11328
-3207.97
-179.706
2.47053
-3216.93
-0.661228
-3223.27
176.678
-71.5738
-3221.27
358.506
-78.7187
-3215.59
542.992
-93.9818
-3204.9
741.858
-123.064
-3181.89
933.503
-156.388
-3139.31
1150.6
-238.782
-3078.15
1334.71
-289.585
-2944.35
1315.55
-634.323
-2815.09
1465.19
-793.787
-2319.18
-229.094
-1713.61
-1724.04
-1878.58
-1733.03
-1977.78
-1519.03
-747.512
-2388.32
-1336.09
-596.014
-2777.02
-1157.87
-337.392
-2943.05
-943.215
-250.04
-3071.55
-749.941
-179.104
-3141.66
-551.29
-133.834
-3181.74
-363.216
-107.14
-3207.05
-179.561
-88.8915
-3217.29
-81.8313
-3223.39
168.799
-140.041
-3225.33
339.85
-154.629
-3220.14
514.221
-181.8
-3211.55
690.278
-233.631
-3190.49
865.11
-298.767
-3157.45
1022.78
-420.602
-3100.85
1163.06
-549.114
-3005.75
1146.31
-851.259
-2891.31
963.239
-1092.5
-2643.22
57.2329
-1413.64
-2518.96
-886.523
-1542.28
-2372
-1099.46
-1116.14
-2543.44
-1117.44
-837.558
-2865.48
-1015.15
-570.859
-2993.82
-862.254
-431.659
-3096.28
-694.314
-314.754
-3157.29
-517.772
-244.285
-3191.09
-342.931
-193.39
-3213.59
-170.45
-164.167
-3222.21
-149.621
-3227.66
153.606
-188.562
-3230.09
306.902
-206.639
-3226.29
460.583
-241.745
-3218.74
607.297
-302.865
-3202.48
744.478
-385.07
-3175.88
842.451
-511.969
-3131.61
897.132
-662.07
-3066.73
790.566
-890.383
-2979.31
528.941
-1109.21
-2846.67
46.3346
-1330.13
-2725.9
-530.868
-1315.02
-2775.05
-818.244
-1099.45
-2854.31
-899.192
-901.12
-2980.49
-848.065
-676.408
-3070.58
-748.563
-523.624
-3132.54
-612.165
-397.589
-3178.56
-464.406
-312.553
-3204.49
-309.748
-251.606
-3221.44
-155.075
-215.074
-3228.77
-196.991
-3232.71
135.015
-213.081
-3235.5
267.807
-232.036
-3232.4
398.288
-269.192
-3228.03
516.329
-330.724
-3215.18
619.283
-413.919
-3199.1
680.591
-531.298
-3166.98
689.9
-668.125
-3128.25
592.184
-841.907
-3075.76
368.183
-1001.84
-3008.37
-9.01164
-1121.2
-2956.74
-362.644
-1147.3
-2939.1
-576.769
-1012.91
-2997.42
-682.586
-848.273
-3072.03
-679.223
-677.674
-3127.1
-620.379
-539.709
-3167.76
-519.116
-423.033
-3200.82
-400.846
-338.562
-3217.26
-269.99
-277.032
-3230.43
-136.156
-239.08
-3234.83
-220.139
-3238.01
115.654
-215.079
-3238.66
228.165
-232.662
-3236.88
335.192
-267.885
-3233.33
428.363
-323.572
-3225.32
501.664
-398.907
-3213.31
536.088
-497.837
-3192.88
520.593
-612.299
-3165.33
425.588
-741.671
-3130.23
251.762
-860.75
-3092.26
13.7057
-946.074
-3062.07
-247.069
-940.981
-3070.54
-430.277
-860.732
-3093.97
-523.598
-747.635
-3132.32
-539.992
-618.86
-3167.42
-505.132
-504.662
-3194.91
-431.831
-405.684
-3215.65
-337.983
-329.786
-3227.62
-230.244
-273.981
-3235.79
-116.693
-238.32
-3239.31
-220.712
-3241.12
97.7861
-196.238
-3241.63
191.646
-211.257
-3240.27
278.874
-241.094
-3239.02
351.049
-287.456
-3233.29
403.644
-348.882
-3227.62
422.012
-426.919
-3214.29
398.901
-513.943
-3200.25
318.627
-607.422
-3178.97
180.713
-688.518
-3159.32
-5.05975
-741.196
-3144.11
-183.055
-746.876
-3141.11
-317.791
-692.627
-3158.37
-400.015
-611.393
-3179.02
-424.191
-518.542
-3201.14
-406.467
-431.56
-3215.83
-353.983
-353.668
-3229.5
-281.358
-292.008
-3235.4
-193.492
-245.6
-3241.25
-98.7328
-215.542
-3242.54
-200.525
-3243.92
82.5121
-161.455
-3242.3
161.027
-173.001
-3241.77
231.932
-196.31
-3240.69
288.691
-231.4
-3237.82
326.217
-277.915
-3233.49
334.844
-334.555
-3225.99
309.324
-397.553
-3215.87
241.745
-461.536
-3203.31
135.299
-516.835
-3190.24
1.47384
-552.039
-3180.33
-137.256
-551.147
-3182
-246.03
-517.791
-3191.06
-313.585
-464.059
-3204.78
-339.18
-400.495
-3217.45
-330.134
-337.809
-3227.8
-292.144
-281.195
-3235.46
-234.652
-234.613
-3239.89
-162.941
-199.475
-3242.84
-83.4727
-176.062
-3243.95
-164.522
-3244.48
70.843
-114.067
-3243.23
137.596
-121.9
-3242.85
196.831
-137.508
-3243.04
242.398
-160.962
-3241.01
270.589
-191.437
-3239.67
273.798
-228.221
-3234.54
248.884
-267.977
-3229.66
191.394
-307.866
-3221.18
104.551
-341.146
-3213.85
-3.35634
-361.368
-3207.76
-109.36
-362.805
-3207.34
-195.366
-342.538
-3214.25
-253.022
-309.48
-3221.93
-277.857
-269.823
-3230.84
-274.428
-230.187
-3236.05
-245.762
-193.458
-3241.4
-199.517
-162.958
-3242.9
-139.467
-139.495
-3245.03
-71.7885
-123.845
-3244.9
-116.027
-3245.28
62.876
-59.0193
-3242.92
121.839
-62.9472
-3242.92
173.199
-70.8523
-3243.02
211.962
-82.5271
-3242.2
234.288
-97.7443
-3241.02
234.837
-115.726
-3238.05
211.065
-135.303
-3233.9
160.747
-154.385
-3228.16
87.1098
-170.371
-3222.14
-1.83797
-179.99
-3217.43
-91.8852
-179.81
-3217.95
-166.044
-170.633
-3222.75
-216.19
-155.075
-3229.26
-239.713
-136.089
-3235.21
-238.619
-116.692
-3239.59
-215.63
-98.7277
-3242.72
-176.045
-83.4901
-3244.05
-123.791
-71.8114
-3244.94
-63.8513
-63.8892
-3244.9
-59.9696
-3244.91
58.9446
-3242.96
114.009
-3243.01
161.645
-3243.49
196.94
-3242.82
216.69
-3242.49
215.942
-3239.98
192.867
-3237.23
145.805
-3232.32
78.1339
-3227.7
-3.06268
-3223.79
-83.9053
-3223.97
-151.259
-3228.28
-198.107
-3233.23
-220.759
-3238.44
-221.022
-3241.43
-200.618
-3244.13
-164.508
-3244.6
-115.971
-3245.35
-59.9315
-3244.93
-3244.9
-11.337
-11.4115
-3217.34
-22.2039
-12.1664
-3217.1
-32.1812
-13.6696
-3217.03
-40.2058
-16.0004
-3216.02
-45.8551
-19.1051
-3215.25
-47.4945
-23.0544
-3213.06
-44.444
-27.6066
-3211.18
-35.1626
-32.4987
-3208.29
-19.7644
-37.1571
-3206.25
0.0520562
-39.5092
-3204.7
19.625
-38.6898
-3204.77
35.038
-35.9076
-3206.38
44.489
-31.6762
-3208.59
47.7799
-27.1609
-3211.75
46.2519
-22.7933
-3213.94
40.6292
-18.9657
-3216.39
32.5414
-15.9196
-3217.39
22.4652
-13.6291
-3218.55
11.4751
-12.1424
-3218.72
-11.4019
-3219
-12.078
-22.3662
-3217.11
-23.7038
-23.8846
-3216.8
-34.4331
-26.8746
-3216.39
-43.2187
-31.6436
-3215.09
-49.4704
-37.9682
-3213.55
-51.5188
-46.1191
-3210.75
-48.4442
-55.5862
-3207.66
-38.636
-65.5426
-3204
-22.2461
-75.6964
-3200.76
-0.666273
-81.7012
-3198.57
21.342
-80.9245
-3198.63
38.7402
-74.3677
-3200.77
48.7371
-64.7404
-3204.09
52.0659
-55.0462
-3208.1
50.0009
-45.7253
-3211.55
43.7223
-37.727
-3214.66
34.8262
-31.4946
-3216.45
23.9815
-26.7932
-3217.92
12.2174
-23.8307
-3218.43
-22.3323
-3218.79
-13.5845
-32.4156
-3217.05
-26.713
-34.6931
-3216.41
-39.1537
-39.3428
-3215.82
-49.5515
-46.7068
-3213.39
-57.6194
-56.8874
-3211.26
-61.0027
-70.3652
-3206.27
-58.807
-86.841
-3201.97
-47.949
-105.75
-3195.42
-27.1918
-126.55
-3190.88
1.81811
-138.864
-3186.96
27.9272
-131.263
-3187.35
46.8095
-118.409
-3190.84
57.8135
-100.989
-3195.52
60.5157
-84.5905
-3202.33
57.5277
-69.0592
-3207.03
49.6667
-56.2589
-3212.35
39.3362
-46.3543
-3214.76
26.8788
-39.1814
-3217.37
13.6809
-34.5839
-3218.07
-32.3558
-3218.77
-15.9057
-40.5452
-3216.05
-31.4651
-43.6079
-3215.1
-46.4884
-49.7759
-3213.38
-59.6034
-59.8669
-3209.76
-70.2883
-74.2084
-3204.82
-75.6175
-93.4973
-3197.21
-73.8798
-118.715
-3188.17
-60.6276
-147.057
-3178.39
-35.7796
-180.474
-3169.18
1.41738
-204.758
-3162.08
36.1795
-192.922
-3162.18
61.48
-172.313
-3167.78
73.9364
-141.097
-3177.28
75.614
-115.64
-3187.92
70.3692
-91.7512
-3197.64
59.7456
-73.2483
-3205.76
46.6576
-59.3712
-3211.08
31.6122
-49.5285
-3214.93
15.9887
-43.4421
-3216.8
-40.4432
-3217.81
-18.9728
-46.2577
-3215.27
-37.7546
-49.936
-3213.55
-56.666
-57.6856
-3211.22
-74.1105
-70.4346
-3204.76
-90.2562
-89.5652
-3197.88
-101.207
-116.768
-3184.12
-105.458
-155.029
-3171.11
-91.7119
-204.616
-3152.73
-53.5655
-280.492
-3137.81
11.3755
-345.283
-3122.25
57.831
-277.876
-3124.92
85.2452
-234.112
-3136.97
99.0228
-184.967
-3151.04
97.2107
-147.348
-3170.37
88.3078
-112.753
-3184.42
73.1718
-87.8607
-3198.71
56.3326
-69.5401
-3206.06
37.6427
-57.3133
-3212.78
18.9635
-49.6813
-3215.28
-46.0938
-3217.07
-22.8799
-48.046
-3213.03
-45.8413
-52.2471
-3210.65
-69.9828
-60.9627
-3206.09
-93.2356
-75.9008
-3196.91
-117.034
-99.7037
-3183.82
-134.019
-134.044
-3163.4
-142.662
-187.847
-3139.4
-125.113
-261.498
-3111.97
-69.3204
-415.639
-3086.14
18.1864
-549.738
-3064.33
94.0189
-399.658
-3057.11
125.513
-317.264
-3078.74
140.365
-229.919
-3106.32
130.741
-177.342
-3136.18
114.772
-128.251
-3162.71
91.9355
-96.8055
-3184.35
69.3327
-74.5794
-3198.06
45.5815
-60.357
-3207.63
22.7886
-51.8099
-3212.4
-47.7429
-3214.86
-27.2085
-45.054
-3211.06
-55.045
-49.2105
-3207.43
-85.7766
-58.1483
-3201.6
-118.124
-73.5821
-3187.44
-155.595
-99.8389
-3170.36
-191.684
-139.467
-3138.48
-236.428
-207.03
-3108.55
-238.538
-340.885
-3070.15
-139.358
-693.816
-3039.51
12.5433
-959.706
-2967.84
187.022
-620.459
-2989.45
190.122
-376.498
-3020.24
200.549
-264.427
-3053.68
174.212
-194.793
-3101.54
147.53
-132.236
-3136.66
113.893
-96.8106
-3170.33
84.132
-71.9892
-3188.52
54.2811
-57.4365
-3203.1
26.9947
-48.6095
-3209.19
-44.5675
-3212.91
-31.9049
-36.0258
-3207.98
-65.0499
-39.79
-3203.42
-104.184
-46.8776
-3194.53
-146.893
-61.3237
-3176.26
-205.498
-83.2095
-3149.55
-271.578
-121.165
-3105.13
-410.446
-168.428
-3055.43
-525.2
-260.537
-2981.38
-409.644
-650.823
-2725.71
187.447
-882.691
-2129.8
609.709
-477.047
-2773.62
361.547
-311.945
-2936.46
313.982
-253.952
-2969.41
233.94
-172.91
-3047.39
190.257
-116.239
-3104.38
139.456
-80.7579
-3149.66
100.858
-59.2261
-3177.44
63.6931
-45.9757
-3196.18
31.4678
-38.7613
-3205.26
-35.1268
-3209.89
-35.6168
-20.8448
-3205.81
-72.9741
-23.439
-3200
-119.005
-26.5189
-3189.54
-172.843
-34.8981
-3165.68
-253.736
-42.724
-3132.42
-383.572
-53.9744
-3068.21
-648.851
-63.4773
-2999.64
-1025.09
-27.8942
-2829.01
-1114.17
-52.7347
-1929.94
-15.4183
119.44
-21.4076
960.131
35.8449
-2273.07
536.597
-289.719
-2858.02
438.157
-160.486
-2878.2
296.918
-96.6565
-2992.29
231.703
-71.0491
-3071.78
163.069
-45.3421
-3133.3
115.701
-34.5895
-3167.09
71.7208
-25.5664
-3191.34
35.2769
-21.9519
-3201.91
-19.4082
-3207.78
-37.9252
-0.903269
-3204.24
-78.5433
-1.38932
-3197.92
-126.863
-0.537111
-3186.04
-185.741
-0.701477
-3159.88
-259.577
0.822284
-3122.3
-361.815
6.08216
-3052.33
-505.391
9.73023
-2963.37
-735.239
93.1642
-2862.07
-780.558
167.613
-2651.08
-74.1771
579.07
-2121.61
760.062
552.56
-2369.73
546.231
-4.75643
-2692.05
467.741
37.2997
-2804.39
338.601
7.6813
-2951.54
253.1
3.38311
-3049.8
178.986
3.12188
-3121.16
124.352
0.632607
-3160.83
77.0487
1.5106
-3187.74
37.478
0.587036
-3199.89
1.09852
-3206.3
-37.4474
19.6243
-3204.35
-78.2296
21.7613
-3197.96
-123.866
26.3885
-3186.19
-182.782
35.714
-3159.39
-249.673
49.6816
-3121.28
-352.065
79.5534
-3049.23
-447.735
117.223
-2956.18
-576.682
231.947
-2824.93
-486.919
428.842
-2670.17
113.792
749.322
-2495
571.547
626.274
-2509.25
563.463
289.072
-2674.06
440.533
195.553
-2812.34
342.567
113.922
-2951.33
247.133
75.5245
-3048.25
179.524
50.3851
-3121.32
122.936
36.2451
-3160.77
77.2591
28.1241
-3187.98
37.2217
23.3844
-3200.05
21.4328
-3206.5
-35.0976
35.4829
-3206.09
-72.5663
39.2688
-3200.18
-114.226
46.3112
-3189.82
-164.422
60.7495
-3165.33
-221.48
81.5099
-3132.22
-295.593
121.218
-3068.4
-362.028
172.447
-2994.54
-420.98
278.511
-2878.93
-305.424
421.454
-2751.39
9.25934
579.3
-2663.62
331.89
589.803
-2658.16
415.984
411.772
-2750.23
349.56
269.99
-2873.49
289.228
173.239
-2992.81
217.443
119.853
-3068.82
161.847
82.3181
-3133.63
112.856
61.3833
-3167.24
71.6651
47.6736
-3191.95
34.7508
40.5388
-3202.45
36.919
-3208.4
-31.1849
45.1828
-3208.6
-63.7912
49.4844
-3203.9
-99.1043
57.8617
-3194.97
-138.462
73.5439
-3175.92
-180.831
96.4738
-3148.47
-225.524
135.164
-3100.86
-260.011
185.675
-3045.47
-265.05
268.263
-2964.02
-186.662
369.097
-2872.7
10.3845
463.734
-2807.39
188.873
444.187
-2807.93
268.212
350.632
-2872.51
259.123
261.097
-2962.51
224.249
182.693
-3045.16
179.945
133.635
-3102.02
137.469
96.3103
-3150.08
98.5478
73.7808
-3177.97
63.3194
58.6193
-3197.16
31.0023
50.2973
-3206.21
46.1413
-3210.93
-26.7413
48.4807
-3212.05
-54.1425
52.7626
-3208.27
-82.8933
60.8456
-3202.27
-112.829
75.6955
-3187.4
-142.477
96.2731
-3169.26
-169.251
128.949
-3133.99
-183.451
169.613
-3097.99
-172.912
226.546
-3044.58
-110.856
290.025
-2991.35
4.55158
338.842
-2947.25
115.669
342.563
-2948.59
172.437
288.305
-2991.86
182.207
224.416
-3045.12
168.309
168.658
-3099.16
141.682
128.124
-3135.62
112.217
96.155
-3171.2
82.4709
75.7907
-3189.53
53.8637
61.2973
-3204.5
26.6209
53.2733
-3210.56
49.1076
-3214.35
-22.5507
46.8611
-3214.49
-45.2533
50.5853
-3212
-68.2806
57.8523
-3207.31
-90.7167
70.4126
-3197.6
-111.417
87.5999
-3183.94
-126.799
112.962
-3161.52
-131.34
143.353
-3134.53
-116.032
182.338
-3101.33
-71.693
221.586
-3068.16
1.40109
250.793
-3047.11
73.4798
246.745
-3046.8
118.593
217.835
-3068.61
132.497
180.251
-3102.06
127.48
141.965
-3135.71
111.687
112.153
-3163.14
90.7702
87.231
-3185.81
68.2841
70.3229
-3199.67
45.222
58.0197
-3209.45
22.5316
50.8485
-3214.2
47.2071
-3216.69
-18.7751
41.1377
-3217.13
-37.3218
44.2084
-3215.34
-55.5782
50.0168
-3212.93
-72.2523
59.9579
-3206.16
-86.4351
73.0484
-3198.89
-95.0304
91.4986
-3184.23
-94.835
112.87
-3169.96
-80.3464
138.001
-3149.13
-46.9861
161.705
-3132.8
2.19977
177.87
-3120.37
50.0833
178.679
-3120.93
81.8087
161.241
-3133.5
95.8755
137.349
-3150.18
95.721
112.291
-3171.31
86.8885
91.025
-3185.87
72.5381
72.8025
-3200.72
55.7453
59.845
-3208.13
37.4128
50.0721
-3214.97
18.8141
44.3317
-3217.42
41.3226
-3219.22
-15.8142
32.9075
-3218.25
-31.2783
35.1725
-3217.27
-46.0255
39.5829
-3215.51
-58.9466
46.7713
-3211.71
-69.0603
56.1968
-3206.53
-74.0827
68.8596
-3198.33
-71.6356
83.1116
-3188.56
-58.788
99.207
-3177.36
-33.9818
113.605
-3166.94
0.964834
123.36
-3160.77
36.0075
122.488
-3160.85
60.9335
112.783
-3167.53
73.2345
98.521
-3178.25
75.3145
82.5399
-3189.78
69.9289
68.444
-3199.83
59.5501
55.9346
-3208.22
46.415
46.6331
-3213.54
31.5114
39.5543
-3217.42
15.9187
35.2043
-3219.23
32.9852
-3220.22
-13.535
22.7116
-3219.5
-26.5887
24.2211
-3218.85
-38.8575
27.0678
-3218.25
-49.09
31.7431
-3215.74
-56.7405
37.6787
-3213.5
-59.6989
45.5131
-3208.24
-56.7296
54.0906
-3203.61
-45.5328
63.432
-3196.6
-25.5756
71.5531
-3191.75
1.38005
76.7188
-3188.08
27.9448
76.9411
-3188.36
47.377
71.4239
-3192.32
58.2802
63.2191
-3197.53
60.9215
53.8591
-3204.8
57.6798
45.3011
-3209.67
49.7878
37.5251
-3215.1
39.3422
31.6491
-3217.47
26.8905
27.0327
-3220.06
13.6735
24.2223
-3220.7
22.7409
-3221.37
-12.0854
11.5964
-3219.72
-23.7084
12.3422
-3219.42
-34.4093
13.7756
-3219.02
-43.222
16.0462
-3217.69
-49.4224
18.956
-3216.1
-51.5224
22.697
-3213.13
-48.3035
26.7841
-3209.82
-38.3662
31.1492
-3205.82
-21.4125
34.879
-3202.42
1.01003
37.2695
-3200.41
23.4464
37.1062
-3200.55
40.3533
34.7131
-3202.94
49.9737
30.9802
-3206.64
52.9185
26.6229
-3210.92
50.5149
22.5757
-3214.46
44.0481
18.8715
-3217.6
34.9853
15.9868
-3219.33
24.0741
13.7439
-3220.74
12.256
12.3301
-3221.19
11.5997
-3221.51
-11.341
-3220.03
-22.2062
-3219.8
-32.1659
-3219.75
-40.1972
-3218.75
-45.7839
-3217.95
-47.3942
-3215.67
-44.1897
-3213.65
-34.7972
-3210.57
-19.203
-3208.42
1.16603
-3206.89
21.3797
-3207.08
36.7276
-3208.91
45.8615
-3211.38
48.775
-3214.73
46.8914
-3216.97
41.0468
-3219.42
32.7712
-3220.34
22.5937
-3221.43
11.526
-3221.53
-3221.78
3.7033
3.97529
-3225.02
7.06081
4.15588
-3224.61
9.71579
4.57825
-3224.26
11.4514
5.0338
-3222.79
12.0299
5.69533
-3221.53
11.5079
6.15874
-3218.7
9.8812
6.71567
-3216.27
7.52002
6.89095
-3212.81
4.58297
7.13256
-3210.44
1.43914
7.19242
-3208.74
-2.02627
7.62468
-3208.93
-5.60613
8.14189
-3210.94
-8.67737
8.12374
-3213.64
-10.907
7.88164
-3217.4
-11.8657
7.14786
-3220.13
-11.5455
6.47133
-3223.18
-9.91888
5.62453
-3224.64
-7.25838
5.02605
-3226.23
-3.82072
4.50904
-3226.67
4.28312
-3227.1
3.87823
7.62081
-3224.63
7.39178
7.96724
-3224.12
10.1571
8.7691
-3223.35
11.9356
9.6371
-3221.47
12.4781
10.8377
-3219.24
11.8138
11.644
-3215.57
10.0581
12.4242
-3211.61
7.57494
12.4077
-3207.04
4.81558
12.3313
-3203.2
2.07746
12.2322
-3200.87
-1.4999
13.7001
-3201.13
-5.51904
15.2072
-3203.82
-8.96516
15.4605
-3207.98
-11.4394
15.0809
-3212.83
-12.5431
13.7779
-3217.07
-12.2288
12.4531
-3220.95
-10.5097
10.8338
-3223.37
-7.68933
9.65383
-3225.37
-4.04391
8.65198
-3226.22
8.20987
-3226.76
4.30509
10.5808
-3224.32
8.19102
11.0609
-3223.39
11.2645
12.1993
-3222.33
13.1978
13.3465
-3219.03
13.7227
14.9973
-3215.95
12.9062
15.7797
-3209.59
10.76
16.6002
-3204
8.03766
15.6601
-3195.95
5.04747
14.676
-3190.23
2.73329
13.4702
-3185.88
-0.752274
16.1725
-3186.34
-5.39523
20.1321
-3191.12
-9.59939
21.1929
-3197.05
-12.7494
21.2657
-3205.37
-14.1202
19.3387
-3211.22
-13.8145
17.5829
-3217.79
-11.8777
15.1768
-3221.04
-8.6636
13.5075
-3224.44
-4.55887
12.0405
-3225.57
11.4084
-3226.53
4.77685
12.6499
-3222.9
9.07106
13.2235
-3221.56
12.377
14.5875
-3219.07
14.2986
15.8664
-3214.2
14.4628
17.6275
-3207.62
12.8427
17.9074
-3197.72
9.77191
17.5724
-3186.08
6.10492
13.7749
-3172.84
4.08282
7.78351
-3160.26
6.09239
1.64735
-3152.27
2.94824
10.8881
-3153.75
-3.8695
21.4461
-3162.27
-9.75036
24.4398
-3174.65
-13.8948
25.3556
-3187.87
-15.8964
23.3559
-3199.66
-15.7035
21.2951
-3209.67
-13.538
18.3133
-3216.38
-9.88653
16.2482
-3221.33
-5.19464
14.4126
-3223.86
13.6261
-3225.22
5.49555
13.5677
-3221.69
10.3653
14.1887
-3219.38
14.1165
15.6565
-3216.05
16.024
16.8778
-3207.68
15.7518
18.4747
-3198.45
13.1328
17.4523
-3181.04
8.06347
15.265
-3163.73
2.63401
5.23633
-3138.76
0.456686
-10.234
-3117.62
11.8887
-31.7258
-3100.31
10.3564
-7.57012
-3104.93
-0.199715
17.5021
-3122.47
-9.23648
24.6448
-3142.21
-15.6858
27.8382
-3166.41
-18.5664
25.2886
-3183.47
-18.4888
23.3422
-3200.84
-16.0093
19.8542
-3210.08
-11.6276
17.5557
-3218.47
-6.12537
15.4627
-3221.83
14.5731
-3224.14
6.09117
13.3697
-3218.92
11.4154
13.9917
-3215.78
15.217
15.5016
-3209.73
16.528
16.509
-3197.85
14.4838
17.8047
-3181.1
8.21803
14.6662
-3154.35
-2.7345
8.25891
-3121.45
-14.3976
-14.9673
-3080.1
-14.9161
-59.8464
-3036.01
29.8593
-139.25
-3001.58
29.8899
-49.1634
-3015.54
9.21049
7.41923
-3047.98
-6.23947
21.0864
-3087.32
-15.9663
27.5195
-3126.14
-20.5842
25.008
-3157.81
-21.0326
23.4436
-3184
-18.3117
19.6394
-3200.57
-13.357
17.3437
-3212.37
-7.01909
15.1212
-3218.4
14.2166
-3221.52
6.87604
11.9761
-3216.55
12.6855
12.6308
-3211.88
16.7608
14.0133
-3204.19
17.0756
15.0277
-3186.27
13.0122
15.4063
-3163.9
1.21623
9.6114
-3121.63
-19.3164
-4.23486
-3075.52
-46.6486
-52.3783
-3005.41
-42.6304
-176.636
-2926.74
86.4457
-383.045
-2853.11
72.9094
-138.275
-2886.8
25.1744
-8.13217
-2956.95
-1.54093
16.17
-3022.05
-16.4918
25.4083
-3084.48
-23.6272
22.4956
-3127.01
-24.0757
21.2592
-3167.7
-21.2767
17.7085
-3189.39
-15.3587
15.4037
-3207.08
-8.12853
13.3603
-3214.66
12.4643
-3219.29
7.46886
9.67419
-3213.15
13.6657
10.393
-3207.37
17.4966
11.8546
-3196.2
15.8768
13.6044
-3173.22
5.93331
15.0063
-3139.21
-20.9908
11.8167
-3080.41
-77.1027
1.36299
-3004.92
-182.763
-41.508
-2886.58
-173.393
-187.209
-2724.5
275.284
-432.456
-2529.07
179.251
-152.861
-2663
49.1361
-6.77203
-2807.71
6.39992
15.9895
-2926.5
-14.3177
22.5528
-3023.81
-25.4189
18.9107
-3089.7
-26.6514
17.3908
-3144.56
-23.6255
14.1572
-3176.92
-17.1083
12.0782
-3199.37
-9.02454
10.3402
-3210.32
9.56277
-3216.01
8.27717
6.42689
-3210.84
15.0443
7.27799
-3203.65
19.4153
8.7389
-3190.8
16.9031
11.9216
-3161.48
2.54725
17.202
-3120.26
-40.6204
27.5107
-3040.74
-158.822
55.1282
-2935.2
-391.286
120.162
-2758.21
-396.551
341.265
-2453.15
557.438
550.446
-1958.3
367.383
148.4
-2384.27
96.5494
60.0276
-2653.98
17.5029
37.052
-2820.22
-12.7735
25.0018
-2964.46
-28.538
16.2781
-3053.38
-29.5269
11.8433
-3126.76
-26.2988
9.36794
-3165.53
-18.7904
7.36231
-3194.13
-9.94802
6.28553
-3206.7
5.63324
-3213.8
9.05622
2.38584
-3209.25
16.9304
2.99092
-3201.51
22.6496
3.97363
-3186.99
23.4695
6.46419
-3155.24
16.1164
11.0787
-3108.83
-4.99154
20.6344
-3024.35
-44.9185
41.1672
-2909.48
-125.636
75.1274
-2736.32
-118.8
199.893
-2516.54
208.238
332.739
-2230.94
176.838
123.334
-2313.27
42.6553
76.1484
-2573.99
0.0996276
31.7621
-2756.55
-22.2835
17.0471
-2921.2
-32.7404
8.5151
-3031.58
-32.608
4.29314
-3113.74
-28.1744
2.97059
-3158.87
-20.0351
1.72632
-3190.25
-10.4956
1.42651
-3204.58
1.08929
-3212.25
9.59025
-2.05174
-3209.5
18.366
-1.94027
-3201.8
25.2321
-1.72442
-3187.36
29.0933
-0.81303
-3155.97
27.8535
1.47238
-3110.43
20.6398
7.00171
-3028.38
6.05116
17.3623
-2917.78
-26.1758
35.9452
-2753.52
-16.5501
85.4059
-2565.31
56.8669
131.197
-2366.88
30.2458
39.4707
-2398.77
-4.48662
27.0806
-2590.26
-24.3653
5.18416
-2765.89
-33.0891
-1.05417
-2924.5
-36.9395
-2.65964
-3033.23
-35.0053
-4.58488
-3114.37
-29.1912
-4.26818
-3159.34
-20.6846
-4.18748
-3190.58
-10.7152
-3.70522
-3204.89
-3.5802
-3212.55
9.69829
-6.21561
-3211.63
18.6517
-6.53491
-3204.54
26.2197
-7.15864
-3191.95
31.262
-7.68392
-3163.5
33.1549
-7.7596
-3124.88
30.5239
-6.06678
-3052.7
25.1413
-4.30439
-2967.49
13.0778
1.28526
-2832.2
15.7047
16.1769
-2684.79
29.4325
26.267
-2572.42
0.256151
-0.886647
-2588.62
-17.1324
-9.89508
-2695.87
-30.4381
-15.763
-2839.24
-36.1029
-15.9792
-2972.22
-37.773
-13.2342
-3056.58
-34.9223
-12.7045
-3128.36
-28.8057
-10.8867
-3166.74
-20.3022
-9.54478
-3195.1
-10.5036
-8.34366
-3207.61
-7.81536
-3214.66
9.29812
-9.63867
-3214.47
17.9725
-10.2905
-3208.81
25.399
-11.6233
-3197.93
30.7701
-13.2915
-3175.68
33.4894
-15.2726
-3143.68
32.9297
-16.5868
-3089.78
28.9191
-18.826
-3026.93
20.4809
-18.9502
-2935.35
14.6826
-16.6155
-2834.1
12.1749
-17.2229
-2761.39
-4.41357
-25.7105
-2766.51
-20.0454
-27.7114
-2839.06
-30.6554
-28.4453
-2939.22
-35.5451
-25.9653
-3030.28
-36.09
-21.7155
-3092.99
-33.0053
-19.0712
-3146.8
-27.1077
-16.0144
-3178.74
-19.1065
-13.7466
-3200.96
-9.86703
-11.9891
-3211.8
-11.1713
-3217.44
8.65547
-11.9704
-3218.38
16.671
-12.7806
-3213.8
23.7552
-14.6411
-3206.33
28.7531
-16.8322
-3188.86
31.9446
-20.2014
-3167.52
31.8608
-22.9336
-3127.56
28.7324
-26.8855
-3086.8
22.501
-29.2996
-3028
14.9365
-30.0672
-2970.33
5.07229
-30.8033
-2923.81
-8.91752
-35.0488
-2925.26
-19.9842
-35.8791
-2972.62
-28.3711
-34.6724
-3030.51
-32.653
-31.4656
-3089.38
-33.1492
-26.5448
-3130.3
-30.0222
-23.074
-3170.32
-24.8138
-19.0501
-3191.7
-17.4283
-16.4521
-3209.18
-9.0453
-14.2956
-3216.64
-13.363
-3221.21
7.67673
-12.9078
-3221.23
14.8432
-13.7877
-3218.16
20.9398
-15.7574
-3212.29
25.436
-18.2102
-3200.72
27.6737
-21.8327
-3184.55
27.3162
-25.1307
-3158.96
23.8879
-29.6172
-3128.37
17.441
-32.6411
-3091.54
10.3222
-35.4955
-3055.61
2.9171
-37.6025
-3032.91
-6.486
-38.6633
-3033.78
-15.8256
-38.1395
-3057.01
-23.4274
-35.7878
-3093.34
-27.6172
-32.5245
-3130.46
-28.3133
-27.6601
-3161.33
-26.1784
-23.949
-3187.07
-21.6058
-19.9502
-3203.34
-15.3371
-17.2284
-3214.94
-7.93587
-15.0648
-3220.83
-14.0979
-3223.89
6.78905
-12.4564
-3224.37
13.0672
-13.2778
-3222.13
18.4475
-15.1267
-3218.94
22.3116
-17.4467
-3210.79
24.3147
-20.7966
-3201.93
24.0852
-24.0599
-3185.07
21.1004
-27.8323
-3168.76
16.0592
-31.0274
-3145.7
9.32896
-33.6828
-3127.88
1.24567
-35.2664
-3114.62
-7.19581
-36.1577
-3114.99
-14.6505
-35.295
-3128.89
-20.5031
-32.9398
-3147.18
-24.0373
-29.7291
-3170.58
-24.5932
-25.7939
-3187.18
-22.7324
-22.3236
-3204.21
-18.8646
-18.7599
-3213.19
-13.3932
-16.2717
-3221.4
-6.96428
-14.3
-3224.62
-13.4208
-3226.86
5.82701
-10.6441
-3225.89
11.216
-11.3249
-3224.61
15.6962
-12.8579
-3222.26
18.8918
-14.7773
-3217.57
20.3697
-17.5662
-3211.24
19.9116
-20.2395
-3201.69
17.502
-23.505
-3190.48
13.1276
-26.0301
-3177.98
7.4299
-28.3848
-3166.54
0.896675
-29.7805
-3159.72
-6.01717
-30.0427
-3160.05
-12.2869
-29.2089
-3167.35
-17.0897
-27.1582
-3179.23
-19.8506
-24.6899
-3192.06
-20.524
-21.3879
-3203.56
-19.1546
-18.6122
-3213.3
-15.9706
-15.7116
-3219.77
-11.4355
-13.6904
-3224.53
-5.94685
-12.0844
-3226.93
-11.3674
-3228.22
5.13595
-7.75669
-3227.52
9.85228
-8.24078
-3226.65
13.754
-9.31193
-3225.7
16.4756
-10.6834
-3222.56
17.6728
-12.5961
-3219.67
17.2417
-14.5225
-3213.53
14.9694
-16.6737
-3208.17
11.2473
-18.508
-3200.4
6.24553
-20.063
-3195.07
0.444435
-20.9501
-3191.11
-5.41943
-21.1938
-3191.34
-10.6269
-20.5524
-3195.77
-14.6399
-19.1644
-3201.51
-17.1472
-17.3805
-3209.6
-17.7504
-15.2238
-3215.23
-16.6454
-13.2512
-3221.57
-13.9446
-11.281
-3224.6
-10.0098
-9.85414
-3227.83
-5.22324
-8.74236
-3228.83
-8.23776
-3229.72
4.57816
-4.07598
-3227.98
8.77091
-4.32532
-3227.52
12.1785
-4.88293
-3226.86
14.5173
-5.58431
-3225.13
15.4729
-6.58606
-3223.06
14.9604
-7.55734