/*--------------------------------*- C++ -*----------------------------------*\
| =========                 |                                                 |
| \\      /  F ield         | OpenFOAM: The Open Source CFD Toolbox           |
|  \\    /   O peration     | Version:  2412                                  |
|   \\  /    A nd           | Website:  www.openfoam.com                      |
|    \\/     M anipulation  |                                                 |
\*---------------------------------------------------------------------------*/
FoamFile
{
    version     2.0;
    format      ascii;
    arch        "LSB;label=32;scalar=64";
    class       volVectorField;
    location    "1500";
    object      U;
}
// * * * * * * * * * * * * * * * * * * * * * * * * * * * * * * * * * * * * * //

dimensions      [0 1 -1 0 0 0 0];

internalField   nonuniform List<vector> 
124215
(
(3.41297 3.48251 -545.945)
(10.5854 3.77822 -545.843)
(16.6 4.13346 -545.957)
(21.8285 4.90234 -545.694)
(25.1745 5.62882 -545.664)
(26.5136 6.70229 -544.918)
(25.304 7.58321 -544.21)
(21.1783 8.4767 -542.743)
(14.4784 9.04535 -541.463)
(5.09542 9.47432 -540.161)
(-4.26518 10.3264 -539.935)
(-13.6055 9.833 -540.969)
(-20.4563 9.18976 -542.414)
(-24.9366 8.02451 -544.111)
(-26.417 7.03532 -545.054)
(-25.2885 5.84743 -545.981)
(-22.0215 5.06289 -546.152)
(-16.8107 4.24557 -546.505)
(-10.7261 3.86624 -546.449)
(-3.47282 3.55924 -546.583)
(3.70172 10.7932 -545.842)
(11.2092 11.4276 -545.719)
(17.7596 12.9557 -545.695)
(23.3311 14.9329 -545.361)
(27.0391 17.8441 -545.05)
(28.5762 21.0152 -544.113)
(27.2812 24.9083 -542.975)
(23.0374 28.6669 -541.119)
(15.7057 32.3851 -539.529)
(6.15873 33.7967 -538.198)
(-4.05459 32.741 -538.066)
(-14.8608 31.3383 -539.1)
(-22.3967 28.2082 -541.023)
(-27.1666 25.0052 -542.947)
(-28.6384 21.2569 -544.303)
(-27.2951 18.1401 -545.379)
(-23.6117 15.1907 -545.831)
(-18.0354 13.1785 -546.242)
(-11.385 11.6083 -546.326)
(-3.77258 10.9581 -546.475)
(4.06294 16.9666 -545.951)
(12.7414 18.1448 -545.695)
(20.0581 20.4299 -545.733)
(26.7069 23.9106 -545.058)
(31.1565 28.4237 -544.822)
(33.4613 33.7834 -543.463)
(32.544 39.6791 -542.484)
(28.0903 45.0364 -540.5)
(19.5843 50.0531 -539.057)
(6.24577 52.4414 -536.989)
(-6.19394 54.7912 -535.817)
(-17.907 52.2259 -537.285)
(-26.6274 46.8499 -539.026)
(-31.7659 40.9884 -541.77)
(-33.2515 34.777 -543.223)
(-31.2866 29.1566 -544.951)
(-26.9797 24.4628 -545.41)
(-20.3443 20.8384 -546.23)
(-12.9399 18.4609 -546.271)
(-4.13851 17.241 -546.57)
(4.8403 22.3212 -545.693)
(14.7092 23.8537 -545.372)
(23.5258 27.1872 -545.051)
(31.4069 31.9316 -544.095)
(37.0208 38.6687 -543.118)
(40.1264 46.5929 -540.951)
(39.0751 56.4203 -538.766)
(33.7725 66.7587 -535.052)
(22.5932 78.9124 -532.204)
(8.84422 83.182 -529.491)
(-4.65174 77.9014 -529.15)
(-22.4034 74.0694 -531.613)
(-33.6156 65.3012 -534.385)
(-39.1639 56.886 -538.234)
(-40.5139 47.3305 -540.804)
(-37.5665 39.4864 -543.23)
(-31.9401 32.5546 -544.438)
(-23.992 27.6934 -545.534)
(-15.0027 24.2259 -545.943)
(-4.95219 22.6487 -546.306)
(5.58482 25.8375 -545.625)
(17.6021 27.7759 -545.027)
(28.0601 31.8229 -544.739)
(38.1772 37.8106 -543.078)
(45.6054 46.3108 -542.016)
(51.015 56.1432 -538.92)
(51.5465 68.5927 -536.795)
(47.8679 79.4899 -532.276)
(33.3247 90.7041 -532.426)
(9.24114 93.3559 -531.308)
(-9.16737 102.008 -522.155)
(-28.7116 99.5245 -524.105)
(-43.8579 83.1817 -527.633)
(-49.5184 71.2441 -534.264)
(-50.7152 58.0253 -537.525)
(-45.9054 47.4902 -541.645)
(-38.7745 38.6499 -543.128)
(-28.5755 32.3844 -545.11)
(-17.9739 28.1672 -545.527)
(-5.7109 26.1559 -546.199)
(6.72257 27.2629 -544.861)
(20.7554 29.4238 -544.102)
(33.4798 34.0895 -543.307)
(46.0746 41.0181 -540.889)
(55.3643 51.3163 -538.754)
(63.3047 63.9842 -533.13)
(62.8667 82.629 -528.361)
(57.9726 105.607 -520.339)
(34.3659 145.399 -524.261)
(4.61399 158.451 -528.461)
(-7.48887 120.415 -505.933)
(-40.4029 121.139 -513.179)
(-61.1974 98.1019 -515.141)
(-63.942 83.0184 -526.466)
(-64.6033 65.1399 -531.765)
(-56.6715 52.612 -538.042)
(-47.1014 41.7564 -540.821)
(-34.3159 34.6724 -543.551)
(-21.2654 29.7496 -544.531)
(-6.88735 27.5199 -545.377)
(7.67461 26.2003 -543.995)
(24.5022 28.4461 -542.808)
(39.4715 33.3304 -541.926)
(55.5448 40.5572 -538.374)
(68.0387 52.1817 -535.598)
(82.3419 64.8223 -527.801)
(89.3304 87.5326 -525.01)
(106.457 102.702 -520.197)
(96.0768 139.995 -544.667)
(32.718 137.825 -570.348)
(-26.4568 149.511 -499.539)
(-52.9684 163.383 -496.399)
(-86.3169 106.744 -498.312)
(-81.0341 90.2015 -517.161)
(-81.9219 67.0379 -523.992)
(-68.5971 53.0294 -534.251)
(-56.8581 41.084 -537.687)
(-40.3286 33.6148 -542.016)
(-25.1764 28.5173 -543.1)
(-7.8416 26.2329 -544.443)
(8.83636 22.0642 -542.42)
(28.0421 24.1347 -541.003)
(45.4149 28.4106 -539.581)
(65.4177 35.0694 -534.921)
(79.2517 45.1155 -530.646)
(101.734 56.0321 -520.018)
(97.3514 75.5811 -521.672)
(146.145 109.101 -494.951)
(46.2155 251.013 -411.248)
(-239.397 352.675 -200.782)
(-206.471 128.11 -231.578)
(-74.2218 177.414 -506.039)
(-141.231 102.509 -478.042)
(-99.7018 86.8077 -505.441)
(-103.738 60.6728 -513.466)
(-81.2771 47.2497 -528.391)
(-66.9485 35.4546 -533.67)
(-46.5135 28.6003 -539.295)
(-28.8284 23.9921 -541.075)
(-9.00688 21.8541 -542.71)
(9.54657 15.4799 -540.685)
(31.1416 17.2063 -538.745)
(50.0427 20.2115 -537.003)
(73.4018 26.582 -530.37)
(89.5504 34.3759 -524.251)
(116.419 48.0736 -512.349)
(125.458 64.2597 -522.271)
(174.098 62.2252 -502.204)
(225.713 340.846 -219.887)
(-95.2326 -31.5182 466.095)
(-315.674 -339.445 217.521)
(-126.337 132.989 -569.027)
(-187.345 79.8042 -438.972)
(-118.573 60.8724 -491.292)
(-124.772 46.0079 -501.153)
(-92.0482 32.7059 -522.533)
(-76.2059 25.1165 -529.21)
(-51.4942 19.5544 -536.754)
(-32.1611 16.3959 -538.816)
(-9.72871 14.7841 -540.975)
(10.3384 6.16203 -539.167)
(33.0788 7.43729 -537.039)
(54.7924 8.14489 -534.544)
(79.2491 11.9977 -527.43)
(104.062 15.3563 -518.037)
(130.127 22.9039 -502.074)
(164.243 40.3281 -487.684)
(188.941 -20.8157 -476.345)
(230.477 161.885 -340.681)
(458.247 -187.297 94.0728)
(-92.183 -344.584 183.691)
(-203.99 92.7639 -395.615)
(-165.049 32.4322 -376.543)
(-148.056 24.8646 -468.88)
(-130.561 20.3389 -491.071)
(-102.201 11.1499 -516.223)
(-80.6448 10.2175 -525.865)
(-55.2332 6.66906 -534.288)
(-33.7985 6.15108 -537.094)
(-10.3845 5.04833 -539.459)
(10.8194 -3.97074 -538.765)
(32.5899 -4.31951 -536.682)
(55.9763 -5.40945 -533.237)
(77.3411 -7.18159 -526.46)
(106.18 -9.52886 -513.732)
(121.486 -15.8886 -496.663)
(165.855 -19.1093 -458.448)
(149.748 -63.0785 -420.042)
(190.995 -102.936 -276.84)
(163.908 -297.972 -73.2327)
(-229.836 -207.053 -143.279)
(-219.733 -28.0983 -287.852)
(-163.024 -49.8798 -407.187)
(-160.62 -20.3204 -456.53)
(-125.58 -16.1838 -494.722)
(-105.703 -11.7632 -514.386)
(-79.2824 -8.26311 -526.381)
(-56.2727 -6.93379 -533.927)
(-33.3749 -5.54129 -537.232)
(-10.7606 -5.21286 -539.487)
(10.2297 -13.6017 -540.256)
(31.2348 -15.0241 -538.343)
(52.7098 -17.708 -535.559)
(73.5847 -23.0756 -529.38)
(96.9393 -29.2499 -519.565)
(114.758 -43.0421 -503.829)
(138.959 -54.6794 -475.827)
(142.608 -95.4557 -443.154)
(144.412 -119.226 -367.478)
(85.7959 -152.101 -320.12)
(-67.6659 -222.309 -274.686)
(-145.763 -147.945 -336.5)
(-132.506 -94.8995 -436.008)
(-137.462 -61.5621 -472.407)
(-113.95 -44.8156 -502.646)
(-97.1557 -32.0461 -519.569)
(-74.2015 -24.5286 -529.613)
(-53.0191 -19.3379 -536.255)
(-31.6423 -16.2835 -539.048)
(-10.2348 -14.8706 -541.062)
(9.39695 -20.8641 -542.047)
(28.3489 -22.9958 -540.601)
(47.4051 -26.9901 -538.182)
(65.7433 -34.2825 -533.322)
(84.1215 -44.0023 -525.632)
(98.2937 -59.9495 -513.097)
(109.968 -79.2969 -494.39)
(108.964 -112.308 -469.461)
(86.3625 -144.093 -430.437)
(43.8636 -186.951 -390.168)
(-34.9609 -162.489 -406.183)
(-92.561 -132.084 -432.958)
(-109.964 -111.355 -470.035)
(-110.002 -79.5788 -495.565)
(-99.2182 -61.2333 -513.508)
(-84.4815 -45.4484 -526.522)
(-66.4452 -35.5226 -534.031)
(-47.7158 -28.2653 -539.117)
(-28.7034 -24.101 -541.466)
(-9.41783 -21.9676 -542.969)
(8.12598 -25.478 -543.998)
(25.0287 -27.8147 -542.787)
(41.0856 -32.4086 -541.305)
(56.74 -40.1699 -537.436)
(70.6453 -50.6297 -532.624)
(81.2432 -65.9994 -523.601)
(86.7283 -83.7271 -511.979)
(82.1309 -107.56 -496.819)
(63.8715 -129.291 -476.585)
(25.3779 -143.258 -460.324)
(-26.7741 -157.727 -454.869)
(-61.7827 -135.039 -473.424)
(-80.632 -109.676 -495.926)
(-86.4049 -86.0251 -511.779)
(-81.2106 -67.3468 -523.97)
(-70.9584 -52.0943 -533.244)
(-57.0821 -41.2724 -538.179)
(-41.3861 -33.5287 -542.142)
(-25.2553 -28.7796 -543.64)
(-8.18621 -26.4454 -544.883)
(7.09998 -27.0045 -545.147)
(21.3295 -29.296 -544.373)
(34.9385 -33.8844 -543.16)
(47.4438 -41.2115 -540.637)
(58.132 -51.2614 -537.088)
(65.0682 -64.6819 -531.174)
(66.9756 -80.6051 -523.162)
(60.7957 -99.3064 -512.712)
(43.7275 -116.673 -501.232)
(18.1529 -131.083 -491.426)
(-15.2412 -125.682 -494.291)
(-44.8344 -114.834 -501.94)
(-61.0498 -99.3632 -513.438)
(-67.442 -81.0904 -523.885)
(-65.5352 -65.5158 -531.894)
(-58.5538 -52.1276 -537.899)
(-47.8546 -42.0599 -541.443)
(-35.2326 -34.7164 -544.016)
(-21.5387 -30.0735 -545.224)
(-7.15005 -27.7787 -546.016)
(5.87838 -25.8611 -546.179)
(18.1378 -27.9184 -545.547)
(29.1477 -31.9412 -545.016)
(39.3568 -38.3428 -543.167)
(47.1887 -46.7522 -541.328)
(51.9304 -57.7272 -537.392)
(52.0488 -69.86 -532.991)
(45.8065 -83.2108 -526.578)
(32.6101 -94.9706 -520.179)
(11.5041 -102.012 -515.141)
(-12.5758 -105.034 -514.193)
(-32.2984 -96.3096 -519.912)
(-45.8844 -84.2418 -526.667)
(-52.2631 -70.7783 -533.348)
(-52.2499 -58.4884 -537.956)
(-47.5682 -47.5057 -541.992)
(-39.6954 -39.0096 -543.907)
(-29.4243 -32.5996 -545.796)
(-18.3121 -28.5299 -546.347)
(-5.93871 -26.4718 -546.989)
(5.08232 -22.4893 -546.452)
(15.2045 -24.1056 -546.11)
(24.4832 -27.4714 -545.646)
(32.5344 -32.4475 -544.63)
(38.576 -39.2208 -543.239)
(41.6061 -47.4142 -540.866)
(40.8177 -56.7681 -537.686)
(35.1879 -66.3341 -533.611)
(24.2171 -74.6587 -529.289)
(9.02082 -80.407 -525.865)
(-8.73756 -79.2575 -526.439)
(-24.8581 -74.4659 -529.606)
(-35.6548 -66.4505 -534.129)
(-41.3819 -57.0764 -538.247)
(-42.1117 -47.8394 -541.502)
(-39.0385 -39.6724 -543.929)
(-32.9187 -32.9099 -545.357)
(-24.7729 -27.9291 -546.404)
(-15.3831 -24.5517 -546.881)
(-5.1418 -22.936 -547.228)
(4.251 -17.1864 -546.838)
(13.148 -18.4325 -546.556)
(20.7898 -20.7614 -546.502)
(27.5667 -24.4506 -545.751)
(32.1757 -29.0703 -545.235)
(34.304 -34.8641 -543.567)
(33.1463 -40.9564 -541.858)
(27.9745 -47.2277 -539.009)
(19.1448 -52.4461 -536.343)
(6.46866 -55.4812 -534.17)
(-7.2612 -56.2135 -534.027)
(-19.5767 -52.819 -536.486)
(-28.5015 -47.6407 -539.285)
(-33.6475 -41.3259 -542.283)
(-34.7991 -35.2124 -544.104)
(-32.6279 -29.4116 -545.848)
(-27.9422 -24.7739 -546.425)
(-21.0763 -21.0794 -547.211)
(-13.3206 -18.7389 -547.286)
(-4.31261 -17.4948 -547.575)
(3.87098 -10.9342 -546.822)
(11.5892 -11.5999 -546.682)
(18.4302 -13.1512 -546.61)
(24.1549 -15.2151 -546.254)
(28.047 -18.1519 -545.8)
(29.5633 -21.3957 -544.766)
(28.2456 -25.1645 -543.298)
(23.6537 -28.6899 -541.236)
(15.8841 -31.7515 -539.008)
(5.51635 -33.6636 -537.261)
(-5.97773 -33.3588 -537.455)
(-16.5779 -31.7264 -539.235)
(-24.2744 -28.7093 -541.637)
(-28.8816 -25.2659 -543.771)
(-30.1291 -21.5432 -545.319)
(-28.5484 -18.315 -546.41)
(-24.5554 -15.3856 -546.916)
(-18.7309 -13.3238 -547.3)
(-11.7687 -11.7737 -547.396)
(-3.93195 -11.1086 -547.541)
(3.55972 -3.56754 -546.968)
(10.9232 -3.87845 -546.852)
(17.1848 -4.25136 -546.925)
(22.5362 -5.07892 -546.631)
(25.9912 -5.85884 -546.473)
(27.269 -7.06082 -545.599)
(25.9225 -8.076 -544.591)
(21.4769 -9.2755 -542.819)
(14.4254 -10.1107 -541.068)
(4.75291 -10.5887 -539.619)
(-5.50458 -10.827 -539.68)
(-15.0935 -10.2012 -541.279)
(-22.1493 -9.41376 -543.149)
(-26.5402 -8.16219 -545.03)
(-27.8375 -7.14689 -546.122)
(-26.49 -5.9352 -547.062)
(-22.9411 -5.1439 -547.271)
(-17.4864 -4.31525 -547.597)
(-11.1036 -3.93637 -547.548)
(-3.62237 -3.62678 -547.674)
(-0.691371 -0.696315 -502.767)
(-2.10209 -0.750069 -502.766)
(-3.39012 -0.834769 -502.753)
(-4.53579 -0.975589 -502.68)
(-5.40412 -1.15989 -502.608)
(-5.89161 -1.37058 -502.454)
(-5.83392 -1.62198 -502.351)
(-5.09442 -1.82153 -502.227)
(-3.55611 -2.0194 -502.204)
(-1.24478 -2.13555 -502.231)
(1.26131 -2.29418 -502.278)
(3.53124 -2.14319 -502.296)
(5.07624 -1.92345 -502.309)
(5.85521 -1.66859 -502.423)
(5.93421 -1.39984 -502.524)
(5.45783 -1.17282 -502.683)
(4.58431 -0.983218 -502.761)
(3.43058 -0.838542 -502.838)
(2.1261 -0.753011 -502.855)
(0.701306 -0.698995 -502.857)
(-0.743693 -2.11558 -502.767)
(-2.23445 -2.24989 -502.759)
(-3.62364 -2.52923 -502.727)
(-4.86264 -2.96575 -502.63)
(-5.81522 -3.53454 -502.504)
(-6.37983 -4.29371 -502.303)
(-6.33579 -5.14213 -502.111)
(-5.58617 -6.12825 -501.951)
(-3.92758 -7.0552 -501.837)
(-1.47058 -7.53794 -501.791)
(1.29585 -7.20007 -501.815)
(3.9312 -6.66918 -501.888)
(5.58657 -5.86836 -501.967)
(6.40005 -5.01072 -502.155)
(6.44135 -4.21494 -502.355)
(5.8829 -3.4949 -502.571)
(4.91666 -2.94219 -502.707)
(3.667 -2.51729 -502.814)
(2.25929 -2.24214 -502.85)
(0.753429 -2.11093 -502.859)
(-0.828918 -3.41691 -502.756)
(-2.51404 -3.65329 -502.729)
(-4.096 -4.12234 -502.672)
(-5.5401 -4.85639 -502.48)
(-6.71312 -5.86425 -502.288)
(-7.47981 -7.11832 -501.862)
(-7.59035 -8.62886 -501.528)
(-6.89534 -10.1186 -501.016)
(-4.9715 -11.7118 -500.77)
(-1.57521 -12.7167 -500.622)
(2.00567 -12.7991 -500.761)
(4.8274 -11.7021 -500.944)
(6.71341 -10.1266 -501.177)
(7.49278 -8.59714 -501.63)
(7.44974 -7.08109 -501.95)
(6.7184 -5.8348 -502.373)
(5.56202 -4.83808 -502.57)
(4.12034 -4.11116 -502.766)
(2.53104 -3.64593 -502.827)
(0.836047 -3.41206 -502.855)
(-0.970794 -4.56812 -502.683)
(-2.9477 -4.89885 -502.629)
(-4.82693 -5.56345 -502.478)
(-6.62291 -6.65104 -502.181)
(-8.1054 -8.13229 -501.721)
(-9.21544 -10.1856 -501.06)
(-9.46773 -12.6876 -500.255)
(-8.74607 -15.7987 -499.533)
(-6.34963 -19.2637 -498.948)
(-2.13199 -21.3961 -498.576)
(2.34523 -19.5132 -498.488)
(6.52092 -17.4567 -498.769)
(8.7113 -14.7688 -499.466)
(9.44849 -12.25 -500.282)
(9.22031 -9.94505 -501.107)
(8.12005 -8.02552 -501.792)
(6.64244 -6.59146 -502.266)
(4.85031 -5.53905 -502.574)
(2.96167 -4.88177 -502.732)
(0.977885 -4.55964 -502.786)
(-1.15724 -5.45458 -502.614)
(-3.5065 -5.8744 -502.504)
(-5.83207 -6.74665 -502.29)
(-8.10596 -8.14717 -501.722)
(-10.2109 -10.2225 -501.085)
(-12.0132 -12.9535 -499.753)
(-13.0018 -16.704 -498.628)
(-13.0115 -20.615 -497.073)
(-10.0518 -25.2106 -496.116)
(-2.3455 -28.7139 -495.078)
(4.83389 -28.0751 -494.856)
(9.29623 -24.9121 -496.045)
(11.9583 -20.0668 -496.955)
(12.3108 -16.3055 -498.646)
(11.7019 -12.722 -499.852)
(10.046 -10.0764 -501.17)
(8.04892 -8.07434 -501.824)
(5.80934 -6.70509 -502.397)
(3.50558 -5.84793 -502.618)
(1.15664 -5.43644 -502.727)
(-1.37667 -5.94413 -502.455)
(-4.25008 -6.44045 -502.29)
(-7.07891 -7.47169 -501.853)
(-10.131 -9.22356 -501.034)
(-12.9156 -11.8585 -499.714)
(-15.8672 -15.7974 -497.777)
(-17.2687 -21.2907 -495.615)
(-17.7369 -28.7711 -493.174)
(-14.0962 -40.2848 -491.461)
(-2.3848 -50.4925 -490.141)
(7.58374 -37.9188 -488.141)
(14.522 -32.5856 -490.396)
(17.3721 -25.7518 -492.696)
(16.7961 -20.1231 -495.292)
(15.5257 -15.1296 -497.772)
(12.7179 -11.6102 -499.813)
(10.0186 -9.08765 -501.138)
(7.03806 -7.42246 -501.971)
(4.2344 -6.40348 -502.414)
(1.37124 -5.92023 -502.579)
(-1.63585 -5.91184 -502.362)
(-5.0426 -6.44841 -502.1)
(-8.56868 -7.58934 -501.536)
(-12.5019 -9.5459 -500.222)
(-16.6823 -12.8547 -498.604)
(-21.416 -17.6023 -495.632)
(-25.4749 -25.6847 -493.373)
(-31.1257 -37.1348 -489.613)
(-31.3096 -69.2516 -482.658)
(-8.33297 -101.172 -458.849)
(20.9956 -68.4015 -476.186)
(22.6639 -44.6021 -486.358)
(25.0772 -31.3482 -488.01)
(22.8109 -23.7272 -492.351)
(20.3301 -16.5549 -495.38)
(15.9481 -12.2958 -498.611)
(12.2431 -9.32058 -500.355)
(8.43163 -7.47796 -501.664)
(5.01133 -6.37272 -502.241)
(1.61646 -5.85833 -502.498)
(-1.88121 -5.16823 -502.236)
(-5.95311 -5.6681 -501.895)
(-10.1304 -6.73477 -501.01)
(-15.4713 -8.61458 -499.334)
(-20.8907 -11.8457 -496.758)
(-29.135 -16.9581 -492.628)
(-36.9188 -25.6746 -487.98)
(-64.3786 -46.7246 -471.812)
(-72.0139 -103.933 -397.684)
(-24.055 -135.262 -233.17)
(77.4789 -83.8305 -456.253)
(59.59 -48.7382 -482.892)
(40.9931 -34.0754 -480.558)
(31.0774 -24.4678 -487.387)
(27.1267 -16.1138 -492.577)
(19.6677 -11.5904 -496.763)
(14.8824 -8.41785 -499.523)
(9.89463 -6.65511 -501.194)
(5.88247 -5.58561 -502.076)
(1.84503 -5.09391 -502.401)
(-2.08669 -3.66434 -502.264)
(-6.65473 -4.07481 -501.84)
(-11.4175 -4.73759 -500.804)
(-17.8697 -6.30445 -498.67)
(-25.0617 -8.20018 -495.669)
(-36.3593 -11.5865 -489.999)
(-56.0068 -14.5817 -483.789)
(-112.144 -19.2392 -438.435)
(-144.357 -45.5777 -188.273)
(-103.615 -54.8204 305.813)
(96.8657 -27.1994 -390.14)
(106.191 -38.9031 -469.892)
(55.9664 -27.5255 -474.584)
(40.3414 -17.6935 -482.423)
(33.8598 -12.3726 -489.901)
(23.2157 -8.22675 -495.568)
(17.2376 -6.10087 -498.853)
(11.1804 -4.6305 -501.013)
(6.60837 -3.91423 -502.034)
(2.04658 -3.51929 -502.441)
(-2.24036 -1.41184 -502.331)
(-7.07282 -1.65143 -501.874)
(-12.3409 -1.7782 -500.749)
(-18.8878 -2.39775 -498.382)
(-26.9957 -2.78651 -494.946)
(-36.6447 -3.24344 -488.118)
(-50.2872 -2.96754 -478.772)
(-79.6026 11.011 -466.465)
(-109.888 18.1463 -432.896)
(-62.0319 62.5383 -346.681)
(56.3211 46.9151 -449.707)
(94.5001 -18.5644 -443.447)
(59.8113 -9.90499 -468.314)
(48.6019 -5.91956 -478.299)
(36.4748 -4.74415 -488.344)
(25.8707 -2.77672 -494.78)
(18.5252 -2.30637 -498.575)
(12.0785 -1.57584 -500.943)
(7.01824 -1.41634 -502.075)
(2.18539 -1.18746 -502.517)
(-2.32435 1.22202 -502.409)
(-6.89483 1.34886 -501.927)
(-12.419 1.74252 -500.928)
(-18.1988 2.41062 -498.422)
(-26.8637 3.56248 -495.079)
(-35.1566 6.01054 -488.046)
(-50.7526 8.51691 -479.548)
(-63.7737 19.9932 -468.393)
(-76.2351 42.8966 -454.459)
(-33.6049 93.1286 -452.466)
(56.6151 75.8525 -457.797)
(78.8 18.7184 -459.646)
(60.6448 16.9066 -467.851)
(49.0005 8.36271 -479.478)
(35.1716 5.48853 -487.822)
(26.2022 3.62777 -494.959)
(18.1421 2.45774 -498.51)
(12.2132 1.96521 -501.014)
(6.89788 1.5615 -502.069)
(2.25868 1.46045 -502.536)
(-2.1723 3.54406 -502.366)
(-6.46824 3.94575 -501.917)
(-11.4548 4.6665 -501.015)
(-16.7687 6.2796 -498.705)
(-23.7897 8.42797 -495.701)
(-31.1506 13.1706 -489.448)
(-41.291 18.8564 -482.986)
(-50.0293 32.8732 -472.46)
(-51.0501 52.2917 -463.521)
(-23.4823 79.5031 -463.108)
(27.6778 79.6297 -462.227)
(51.8406 49.628 -464.24)
(47.6879 31.5675 -471.544)
(40.3562 19.2428 -482.635)
(30.5723 12.9834 -489.33)
(23.4062 8.63089 -495.744)
(16.5697 6.3854 -498.812)
(11.2995 4.87972 -501.127)
(6.42167 4.13231 -502.051)
(2.12989 3.7524 -502.495)
(-1.92443 5.15898 -502.355)
(-5.75912 5.68223 -501.992)
(-9.99501 6.69985 -501.201)
(-14.4722 8.63335 -499.428)
(-19.7244 11.5609 -496.828)
(-25.0242 16.5907 -492.24)
(-30.4654 23.3864 -487.133)
(-34.3183 35.3562 -479.49)
(-30.2897 50.7433 -471.735)
(-13.5972 65.8543 -468.75)
(14.7887 62.4487 -467.682)
(31.3118 47.6704 -471.367)
(34.0428 34.2852 -479.05)
(30.2364 22.8873 -486.935)
(24.9492 16.3722 -492.206)
(19.5658 11.5329 -496.861)
(14.4075 8.67611 -499.52)
(9.90989 6.81554 -501.298)
(5.73909 5.80516 -502.115)
(1.89649 5.3006 -502.474)
(-1.6594 5.94151 -502.463)
(-4.92408 6.48693 -502.18)
(-8.45728 7.52692 -501.653)
(-11.9885 9.46435 -500.275)
(-15.8824 12.1896 -498.608)
(-19.3523 16.6486 -495.158)
(-22.3306 22.3199 -492.021)
(-23.1072 30.5359 -487.034)
(-19.1423 40.306 -482.479)
(-7.59029 47.8187 -479.076)
(8.77917 48.9762 -479.361)
(19.169 40.1882 -482.494)
(22.8883 30.2806 -486.942)
(22.2132 22.2752 -492.022)
(19.2378 16.5519 -495.201)
(15.8007 12.2051 -498.696)
(11.9254 9.49146 -500.38)
(8.413 7.60581 -501.77)
(4.90383 6.56859 -502.305)
(1.64908 6.04003 -502.587)
(-1.39173 6.01606 -502.564)
(-4.1665 6.52057 -502.385)
(-7.01124 7.48792 -501.973)
(-9.82797 9.20937 -501.104)
(-12.5818 11.5678 -499.82)
(-14.9372 15.1761 -497.684)
(-16.3482 19.5122 -495.189)
(-16.0567 25.3582 -492.24)
(-12.371 31.4279 -489.413)
(-4.92122 36.2911 -487.984)
(5.10166 35.2162 -487.689)
(12.8349 30.7182 -489.314)
(16.2099 25.0035 -492.204)
(16.4601 19.2833 -495.203)
(14.9888 15.0581 -497.741)
(12.5928 11.5147 -499.902)
(9.83248 9.20383 -501.208)
(7.00577 7.51826 -502.084)
(4.16636 6.5645 -502.504)
(1.38653 6.07144 -502.682)
(-1.16584 5.52838 -502.73)
(-3.45627 5.95117 -502.614)
(-5.77212 6.76812 -502.413)
(-7.92335 8.15509 -501.821)
(-9.93015 10.036 -501.191)
(-11.4023 12.6865 -499.823)
(-12.0443 15.8664 -498.631)
(-11.3386 19.5971 -496.799)
(-8.36155 23.2767 -495.627)
(-3.05451 25.7032 -494.794)
(3.6143 26.0594 -494.901)
(8.5581 23.258 -495.687)
(11.4942 19.5395 -496.85)
(12.143 15.8064 -498.695)
(11.4698 12.6294 -499.901)
(9.97532 10.0117 -501.288)
(7.9489 8.14535 -501.928)
(5.78768 6.78269 -502.525)
(3.46385 5.97409 -502.729)
(1.16802 5.55995 -502.845)
(-0.979051 4.63708 -502.809)
(-2.9207 4.96554 -502.754)
(-4.805 5.59503 -502.613)
(-6.54374 6.65423 -502.299)
(-8.01546 8.01751 -501.847)
(-9.02381 9.92488 -501.146)
(-9.25246 12.0415 -500.345)
(-8.39082 14.5463 -499.509)
(-6.03151 16.7619 -498.819)
(-2.21806 18.3727 -498.552)
(2.43131 18.0943 -498.502)
(6.34496 16.5985 -498.827)
(8.605 14.4136 -499.532)
(9.42983 11.9421 -500.394)
(9.14883 9.85907 -501.217)
(8.10479 7.97791 -501.932)
(6.60244 6.63447 -502.396)
(4.84263 5.59298 -502.715)
(2.94094 4.97262 -502.86)
(0.984795 4.65062 -502.916)
(-0.835004 3.47079 -502.894)
(-2.49768 3.70675 -502.868)
(-4.08 4.15316 -502.82)
(-5.49029 4.87553 -502.626)
(-6.64398 5.82468 -502.446)
(-7.34144 7.04447 -502.021)
(-7.39057 8.43502 -501.721)
(-6.56438 9.90313 -501.261)
(-4.60798 11.2446 -501.094)
(-1.60912 12.0505 -500.987)
(1.95166 12.162 -501.027)
(4.84627 11.2424 -501.129)
(6.77898 9.89021 -501.312)
(7.55841 8.4091 -501.782)
(7.47416 7.01646 -502.096)
(6.74316 5.80417 -502.533)
(5.56268 4.86399 -502.718)
(4.12807 4.15012 -502.918)
(2.52368 3.70839 -502.968)
(0.843616 3.47704 -502.994)
(-0.750775 2.14527 -502.91)
(-2.22983 2.27747 -502.905)
(-3.6278 2.54311 -502.881)
(-4.85661 2.96564 -502.781)
(-5.81704 3.494 -502.664)
(-6.36943 4.2029 -502.455)
(-6.33302 4.9451 -502.275)
(-5.54779 5.78526 -502.108)
(-3.85641 6.46797 -502.057)
(-1.34352 6.94848 -502.101)
(1.58549 6.86997 -502.087)
(4.12228 6.42487 -502.076)
(5.76896 5.7363 -502.136)
(6.5249 4.90853 -502.325)
(6.52076 4.17546 -502.52)
(5.93566 3.47529 -502.74)
(4.94134 2.9536 -502.867)
(3.6854 2.53668 -502.971)
(2.2621 2.27563 -502.998)
(0.7611 2.14589 -503.004)
(-0.697091 0.712865 -502.913)
(-2.09799 0.766437 -502.915)
(-3.39327 0.848735 -502.91)
(-4.53158 0.990754 -502.84)
(-5.40218 1.17123 -502.781)
(-5.87771 1.38806 -502.634)
(-5.81207 1.64371 -502.555)
(-5.04641 1.88053 -502.459)
(-3.48494 2.10921 -502.497)
(-1.17642 2.21643 -502.558)
(1.4624 2.26388 -502.569)
(3.7347 2.11722 -502.518)
(5.27196 1.89364 -502.497)
(5.99879 1.64406 -502.607)
(6.03105 1.38797 -502.699)
(5.52236 1.17054 -502.857)
(4.62034 0.988821 -502.923)
(3.45421 0.847999 -502.998)
(2.13246 0.765927 -503.005)
(0.708455 0.713295 -503.004)
(0.21009 0.226544 -519.12)
(0.694479 0.246705 -519.065)
(1.03641 0.251739 -519.042)
(1.33892 0.30117 -518.827)
(1.4675 0.303593 -518.662)
(1.47522 0.361065 -518.206)
(1.34828 0.34333 -517.803)
(1.07705 0.3733 -517.181)
(0.783167 0.33928 -516.72)
(0.356367 0.353467 -516.353)
(-0.00595217 0.42361 -516.358)
(-0.499852 0.438933 -516.739)
(-0.884985 0.476638 -517.253)
(-1.24396 0.427484 -517.94)
(-1.43334 0.429804 -518.406)
(-1.46951 0.355305 -518.914)
(-1.3609 0.340284 -519.122)
(-1.06462 0.280977 -519.365)
(-0.715045 0.269836 -519.406)
(-0.218439 0.246743 -519.47)
(0.229894 0.745039 -519.067)
(0.717959 0.769517 -518.995)
(1.09286 0.866406 -518.902)
(1.39121 0.929104 -518.626)
(1.53098 1.08568 -518.302)
(1.52141 1.14139 -517.716)
(1.37218 1.28981 -517.061)
(1.09532 1.29924 -516.255)
(0.778012 1.3814 -515.553)
(0.428894 1.37413 -515.084)
(0.0716188 1.41888 -515.103)
(-0.454033 1.5389 -515.584)
(-0.904157 1.50376 -516.343)
(-1.29521 1.49471 -517.203)
(-1.50825 1.31714 -517.922)
(-1.56088 1.22544 -518.559)
(-1.43445 1.03562 -518.927)
(-1.1367 0.947506 -519.231)
(-0.747532 0.833375 -519.342)
(-0.241151 0.800627 -519.422)
(0.235522 1.12353 -519.048)
(0.815447 1.1827 -518.907)
(1.19336 1.28421 -518.781)
(1.55766 1.43099 -518.276)
(1.67522 1.57063 -517.839)
(1.67365 1.70537 -516.83)
(1.4866 1.74619 -515.953)
(1.1404 1.71565 -514.624)
(0.857277 1.59563 -513.657)
(0.440334 1.54576 -512.825)
(0.190259 1.89334 -512.828)
(-0.4017 2.17255 -513.634)
(-0.920173 2.27685 -514.643)
(-1.42464 2.20311 -516.062)
(-1.70055 2.05917 -517.021)
(-1.74752 1.83077 -518.094)
(-1.63857 1.62023 -518.579)
(-1.26395 1.42158 -519.115)
(-0.861461 1.28782 -519.261)
(-0.252079 1.21326 -519.411)
(0.286727 1.46509 -518.838)
(0.880456 1.52409 -518.635)
(1.34115 1.69692 -518.278)
(1.6822 1.83068 -517.531)
(1.81138 2.08488 -516.535)
(1.7142 2.13533 -514.973)
(1.41149 2.26857 -513.135)
(0.958848 2.03331 -510.98)
(0.572767 1.82614 -508.921)
(0.626277 1.47461 -507.455)
(0.705843 1.89099 -507.641)
(-0.0465904 2.67482 -509.036)
(-0.867664 2.8678 -511.056)
(-1.50831 2.97258 -513.258)
(-1.88373 2.66251 -515.177)
(-1.99763 2.46329 -516.8)
(-1.84421 2.09289 -517.847)
(-1.46623 1.882 -518.626)
(-0.956748 1.66021 -519.003)
(-0.313454 1.57913 -519.214)
(0.293786 1.63648 -518.674)
(1.04661 1.71525 -518.312)
(1.49479 1.87805 -517.84)
(1.94469 2.04882 -516.533)
(1.96905 2.22355 -515.152)
(1.847 2.21535 -512.418)
(1.32868 1.97234 -509.754)
(0.562565 1.20015 -505.804)
(0.155493 -0.151855 -502.527)
(0.627725 -1.54734 -499.42)
(1.69104 0.592668 -500.023)
(0.678576 2.50112 -502.728)
(-0.601085 3.07036 -505.863)
(-1.6163 3.22417 -509.848)
(-2.21039 3.04785 -512.598)
(-2.30707 2.75584 -515.416)
(-2.2185 2.39254 -516.852)
(-1.68995 2.10356 -518.197)
(-1.16338 1.87288 -518.691)
(-0.332464 1.76354 -519.063)
(0.362263 1.686 -518.218)
(1.12397 1.75928 -517.726)
(1.66889 1.94758 -516.82)
(2.03456 2.07148 -514.958)
(1.97673 2.26219 -512.396)
(1.49994 1.98867 -508.178)
(0.396794 1.59766 -503.071)
(-1.23492 -0.267804 -496.63)
(-2.3104 -3.28552 -490.069)
(0.775894 -8.02022 -484.625)
(4.52441 -3.20244 -485.877)
(2.58149 1.54676 -490.928)
(0.0402363 2.80074 -496.919)
(-1.4955 3.49689 -503.305)
(-2.36464 3.10798 -508.413)
(-2.63674 2.93592 -512.672)
(-2.49646 2.4628 -515.292)
(-1.97592 2.19063 -517.189)
(-1.29737 1.91577 -518.116)
(-0.418233 1.80671 -518.618)
(0.362298 1.5977 -517.804)
(1.31081 1.67267 -517.056)
(1.79337 1.85454 -515.908)
(2.26277 1.95947 -513.076)
(1.85505 2.06153 -509.654)
(1.16921 1.45401 -502.987)
(-1.11689 0.0348184 -496.089)
(-4.19921 -4.60781 -486.224)
(-7.3556 -15.093 -479.052)
(3.32568 -32.7583 -473.854)
(11.3235 -10.8649 -468.968)
(6.44558 -0.068698 -476.633)
(0.904602 2.27173 -486.087)
(-1.18764 3.19396 -496.421)
(-2.78537 2.99428 -503.304)
(-2.90656 2.81045 -509.971)
(-2.96576 2.34876 -513.411)
(-2.21898 2.06819 -516.29)
(-1.54829 1.79592 -517.454)
(-0.435024 1.68674 -518.214)
(0.429051 1.34884 -517.164)
(1.38627 1.43773 -516.237)
(1.94302 1.5959 -514.527)
(2.25699 1.7615 -510.867)
(1.46126 1.78928 -505.571)
(-0.376658 1.10608 -496.201)
(-5.65774 -0.685101 -485.044)
(-15.7722 -7.58698 -470.795)
(-28.3816 -27.3786 -458.918)
(8.87643 -56.8669 -433.914)
(32.5142 -22.4246 -430.355)
(13.4178 -1.97395 -453.61)
(2.48371 1.60489 -469.551)
(-0.599206 3.04673 -486.225)
(-2.83579 2.53236 -496.959)
(-3.21785 2.40212 -506.045)
(-3.24909 2.00238 -511.24)
(-2.50454 1.71364 -514.921)
(-1.6849 1.49029 -516.642)
(-0.517427 1.3785 -517.579)
(0.439025 1.04196 -516.669)
(1.56827 1.12999 -515.491)
(2.09312 1.34454 -513.498)
(2.52588 1.64244 -508.735)
(1.3429 2.12197 -502.143)
(-1.44113 2.53659 -489.032)
(-10.4704 3.51906 -473.316)
(-34.325 5.38743 -456.304)
(-56.0087 8.63586 -423.463)
(9.75432 4.45046 -326.06)
(66.9929 -1.09053 -376.702)
(26.692 2.72231 -432.235)
(4.57846 3.63274 -450.096)
(0.221002 3.03591 -475.816)
(-3.21873 2.27587 -490.57)
(-3.46618 1.92966 -502.875)
(-3.67667 1.49908 -509.175)
(-2.71029 1.27277 -513.919)
(-1.89221 1.06312 -515.909)
(-0.531545 0.98567 -517.095)
(0.502773 0.547335 -516.293)
(1.69899 0.665265 -515.017)
(2.43492 0.794482 -512.724)
(3.01649 1.23056 -507.555)
(2.58344 1.86049 -500.062)
(1.08451 3.35396 -486.332)
(-2.90283 6.94428 -468.2)
(-10.167 14.0175 -444.223)
(-20.4674 41.7882 -411.957)
(7.51101 66.077 -355.812)
(29.6455 23.7171 -352.563)
(10.7909 11.2795 -411.958)
(2.20953 5.03484 -437.601)
(-1.58823 2.94614 -467.922)
(-3.72362 1.69347 -486.457)
(-3.99716 0.992342 -500.435)
(-3.91219 0.814235 -507.891)
(-2.92838 0.547326 -513.132)
(-1.97793 0.493231 -515.439)
(-0.579863 0.409771 -516.73)
(0.556168 0.0402631 -516.292)
(1.78087 0.0718884 -515.02)
(2.70992 0.181231 -512.681)
(3.40047 0.360699 -507.539)
(3.63448 0.875513 -499.96)
(2.9557 1.81107 -486.346)
(1.73919 3.84321 -467.406)
(-1.31179 7.35669 -440.042)
(-3.67601 16.6308 -404.9)
(5.58338 27.1427 -363.609)
(3.89736 7.88337 -368.066)
(1.08741 6.87967 -407.132)
(-1.90332 2.40679 -439.915)
(-3.54876 1.06139 -467.713)
(-4.386 0.379727 -486.737)
(-4.46943 0.0479261 -500.414)
(-4.03732 -0.0836648 -507.965)
(-3.06125 -0.123848 -513.156)
(-2.00307 -0.140706 -515.49)
(-0.611161 -0.141368 -516.773)
(0.546276 -0.547423 -516.726)
(1.81783 -0.552416 -515.555)
(2.75201 -0.601732 -513.528)
(3.61216 -0.555548 -508.864)
(4.00238 -0.484281 -502.461)
(3.94059 -0.0365268 -490.439)
(3.39391 0.520458 -475.769)
(2.30336 1.52941 -452.85)
(1.90551 4.5604 -425.207)
(4.28749 7.31937 -402.777)
(1.13766 1.63204 -404.321)
(-1.83831 -0.549211 -425.397)
(-2.91355 -1.23305 -453.119)
(-4.19165 -1.32821 -476.088)
(-4.58048 -1.07221 -490.846)
(-4.51748 -1.18184 -502.914)
(-4.00304 -0.977687 -509.327)
(-3.00442 -0.910511 -514.02)
(-1.97264 -0.77865 -516.046)
(-0.589931 -0.745634 -517.223)
(0.551781 -0.991697 -517.3)
(1.71917 -1.06218 -516.375)
(2.68386 -1.17017 -514.629)
(3.50373 -1.33931 -510.992)
(4.00652 -1.44541 -505.728)
(4.09911 -1.47605 -496.739)
(3.91665 -1.66399 -486.021)
(3.02573 -1.35397 -470.387)