/*--------------------------------*- C++ -*----------------------------------*\
| =========                 |                                                 |
| \\      /  F ield         | OpenFOAM: The Open Source CFD Toolbox           |
|  \\    /   O peration     | Version:  2412                                  |
|   \\  /    A nd           | Website:  www.openfoam.com                      |
|    \\/     M anipulation  |                                                 |
\*---------------------------------------------------------------------------*/
FoamFile
{
    version     2.0;
    format      ascii;
    arch        "LSB;label=32;scalar=64";
    class       volVectorField;
    location    "0.01";
    object      U;
}
// * * * * * * * * * * * * * * * * * * * * * * * * * * * * * * * * * * * * * //

dimensions      [0 1 -1 0 0 0 0];

internalField   nonuniform List<vector> 
124215
(
(1.15213e-11 1.15213e-11 -500)
(1.57266e-13 1.15276e-11 -500)
(-1.06561e-16 1.15276e-11 -500)
(1.86172e-24 1.15276e-11 -500)
(1.29357e-29 1.15276e-11 -500)
(-3.32879e-29 1.15276e-11 -500)
(7.48513e-15 1.15276e-11 -500)
(-1.29135e-13 1.13969e-11 -500)
(-8.02542e-13 9.79989e-12 -500)
(-1.22924e-12 7.89588e-12 -500)
(5.23944e-13 7.27925e-12 -500)
(1.84208e-12 9.35632e-12 -500)
(2.05709e-20 1.15276e-11 -500)
(3.35491e-24 1.15276e-11 -500)
(9.65573e-29 1.15276e-11 -500)
(-1.28549e-29 1.15276e-11 -500)
(-1.86169e-24 1.15276e-11 -500)
(-8.81417e-22 1.15276e-11 -500)
(-6.96749e-15 1.15276e-11 -500)
(-1.16739e-11 1.15213e-11 -500)
(1.15276e-11 1.57749e-13 -500)
(1.51278e-13 1.51278e-13 -500)
(-1.45875e-18 1.51278e-13 -500)
(5.79643e-25 1.51278e-13 -500)
(7.29157e-32 1.51278e-13 -500)
(-6.00099e-29 1.51278e-13 -500)
(-3.99435e-24 1.51278e-13 -500)
(2.31826e-15 1.51214e-13 -500)
(-6.16098e-13 1.42696e-12 -500)
(-3.52536e-13 1.56001e-12 -500)
(3.1275e-13 2.01346e-12 -500)
(4.15461e-13 1.63657e-12 -500)
(5.79326e-23 1.51278e-13 -500)
(2.27565e-24 1.51278e-13 -500)
(3.42319e-31 1.51278e-13 -500)
(-4.87735e-32 1.51278e-13 -500)
(-5.79642e-25 1.51278e-13 -500)
(-1.95673e-23 1.51278e-13 -500)
(1.83087e-15 1.51278e-13 -500)
(-1.16821e-11 1.57749e-13 -500)
(1.15276e-11 -1.08743e-16 -500)
(1.51278e-13 -1.45827e-18 -500)
(-1.4517e-18 -1.40722e-18 -500)
(5.80335e-25 -1.40722e-18 -500)
(2.79048e-29 -1.40722e-18 -500)
(-6.59954e-29 -1.40722e-18 -500)
(3.73173e-16 -1.40722e-18 -500)
(-6.08448e-14 -6.54561e-15 -500)
(-7.36379e-13 -1.49151e-13 -500)
(-6.066e-13 -8.34006e-13 -500)
(8.09263e-13 -5.19211e-15 -500)
(1.41612e-12 7.43242e-14 -500)
(8.69672e-22 -1.40722e-18 -500)
(6.21971e-25 -1.40722e-18 -500)
(1.29108e-29 -1.40722e-18 -500)
(-2.78777e-29 -1.40722e-18 -500)
(-5.79991e-25 -1.40722e-18 -500)
(-7.0684e-21 -1.40722e-18 -500)
(1.83086e-15 -1.45827e-18 -500)
(-1.16821e-11 -1.08743e-16 -500)
(1.15276e-11 2.65389e-23 -500)
(1.51278e-13 2.2291e-23 -500)
(-1.4517e-18 2.23195e-23 -500)
(5.80335e-25 2.23195e-23 -500)
(2.79051e-29 2.23195e-23 -500)
(-1.96966e-29 2.23195e-23 -500)
(4.68273e-15 2.23197e-23 -500)
(-2.082e-13 -5.22821e-14 -500)
(-1.73807e-12 -4.6648e-13 -500)
(-2.23489e-13 -1.27782e-12 -500)
(1.4668e-12 -4.03657e-13 -500)
(1.55433e-13 -8.49218e-14 -500)
(-6.78866e-16 1.56122e-24 -500)
(3.71186e-24 2.23195e-23 -500)
(1.34087e-29 2.23195e-23 -500)
(-2.7868e-29 2.23195e-23 -500)
(-5.79991e-25 2.23195e-23 -500)
(-7.0684e-21 2.23195e-23 -500)
(1.83086e-15 2.2291e-23 -500)
(-1.16821e-11 2.65389e-23 -500)
(1.15276e-11 8.11506e-29 -500)
(1.51278e-13 1.80731e-29 -500)
(-1.4517e-18 1.91763e-27 -500)
(5.80335e-25 1.91662e-27 -500)
(2.78854e-29 1.91774e-27 -500)
(-4.82125e-29 1.91702e-27 -500)
(1.34078e-15 7.93087e-28 -500)
(-3.43468e-13 -3.19814e-14 -500)
(-2.85911e-12 -1.2236e-13 -500)
(-1.0855e-12 1.69445e-14 -500)
(2.11886e-12 -5.23159e-13 -500)
(1.83196e-12 -1.70405e-13 -500)
(-3.19927e-17 3.68309e-23 -500)
(1.63825e-24 1.81209e-27 -500)
(2.59382e-31 1.91596e-27 -500)
(-2.78751e-29 1.91596e-27 -500)
(-5.79991e-25 1.91796e-27 -500)
(-7.0684e-21 1.91663e-27 -500)
(1.83086e-15 1.60007e-29 -500)
(-1.16821e-11 8.14657e-29 -500)
(1.15276e-11 -2.86677e-27 -500)
(1.51278e-13 1.04053e-27 -500)
(-1.4517e-18 -1.43738e-27 -500)
(5.80335e-25 -2.93039e-27 -500)
(2.79007e-29 -2.34765e-27 -500)
(-7.50886e-29 -1.60474e-27 -500)
(6.2471e-15 -1.32488e-27 -500)
(-6.79107e-14 1.61552e-22 -500)
(-2.25693e-12 1.55436e-13 -500)
(-8.1708e-13 2.57193e-13 -500)
(1.55891e-12 -2.04225e-13 -500)
(1.21061e-12 -1.05544e-13 -500)
(1.8155e-14 -1.05376e-22 -500)
(3.7759e-24 -4.62122e-27 -500)
(3.29738e-29 -3.12276e-27 -500)
(-2.78586e-29 -3.34974e-27 -500)
(-5.79991e-25 -3.69942e-28 -500)
(-7.0684e-21 -2.07289e-27 -500)
(1.83086e-15 -8.47074e-28 -500)
(-1.16821e-11 -2.8586e-27 -500)
(1.15276e-11 5.70114e-15 -500)
(1.51278e-13 -8.79695e-24 -500)
(-1.4517e-18 -5.9358e-23 -500)
(5.80295e-25 5.80352e-15 -500)
(7.66449e-29 1.87637e-15 -500)
(-6.99777e-29 5.48042e-15 -500)
(9.14541e-16 -3.66982e-23 -500)
(-2.58509e-13 5.29551e-24 -500)
(-2.48052e-12 3.86893e-14 -500)
(-1.16874e-12 -1.17024e-13 -500)
(1.69549e-12 -9.15631e-13 -500)
(1.81099e-12 -2.48162e-13 -500)
(1.90786e-15 -2.89995e-23 -500)
(5.21314e-24 -2.28548e-22 -500)
(7.27532e-29 -1.29489e-22 -500)
(-4.47626e-30 7.64942e-15 -500)
(-5.79988e-25 8.05985e-16 -500)
(-7.0684e-21 4.91011e-15 -500)
(1.83086e-15 -1.1137e-22 -500)
(-1.16821e-11 2.31865e-15 -500)
(1.14212e-11 -1.13541e-13 -500)
(1.51246e-13 -4.26184e-16 -500)
(-1.44714e-18 8.95332e-15 -500)
(-2.07251e-14 -1.53235e-13 -500)
(2.67719e-16 -2.55997e-13 -500)
(-1.01366e-14 -2.11865e-13 -500)
(4.77785e-19 2.56855e-15 -500)
(-1.00125e-14 4.1838e-15 -500)
(-2.27377e-12 1.24682e-13 -500)
(-1.59109e-12 5.90252e-13 -500)
(1.36821e-12 -3.16926e-14 -500)
(2.86432e-12 -3.1267e-14 -500)
(-3.57981e-17 2.91498e-15 -500)
(-1.39043e-16 -5.86811e-15 -500)
(8.19073e-21 1.97324e-15 -500)
(-6.91156e-15 -1.62592e-13 -500)
(4.66078e-14 -4.84967e-13 -500)
(5.20214e-14 -1.33178e-13 -500)
(1.1172e-15 2.56245e-15 -500)
(-1.16776e-11 -6.32004e-14 -500)
(9.86238e-12 -9.52621e-13 -500)
(1.47587e-12 -7.85212e-13 -500)
(-2.44922e-13 -1.90003e-13 -500)
(-3.10785e-13 -1.95285e-12 -500)
(3.56101e-14 -1.79709e-12 -500)
(-7.2303e-14 -1.72824e-12 -500)
(1.28746e-13 -2.34623e-12 -500)
(-1.05989e-13 -4.69865e-13 -500)
(-1.40103e-12 -2.25459e-12 -500)
(-9.87699e-13 -2.66052e-13 -500)
(8.98208e-13 5.59638e-13 -500)
(1.65314e-12 -1.64903e-12 -500)
(1.61511e-14 -5.62391e-13 -500)
(-4.55495e-13 -1.92989e-12 -500)
(-1.34306e-13 -2.17966e-12 -500)
(-1.9498e-13 -3.01814e-12 -500)
(4.09643e-13 -3.60902e-12 -500)
(5.10451e-13 -1.29204e-12 -500)
(-4.61501e-13 -6.28017e-13 -500)
(-1.06405e-11 -2.79527e-12 -500)
(7.32466e-12 -1.77744e-12 -500)
(2.11797e-12 -1.02068e-12 -500)
(-8.59808e-13 -2.904e-13 -500)
(-1.2057e-12 -6.96975e-13 -500)
(-8.96859e-14 -2.04849e-13 -500)
(-7.16676e-14 -2.10881e-12 -500)
(8.5175e-13 -8.88651e-13 -500)
(-6.07768e-13 -6.06345e-13 -500)
(-1.23898e-12 -2.65342e-13 -500)
(1.26293e-12 3.25636e-13 -500)
(-3.11129e-14 -4.17013e-13 -500)
(3.30442e-13 -1.34362e-12 -500)
(4.17614e-13 -1.30484e-12 -500)
(-1.07127e-12 -5.74525e-13 -500)
(-9.21828e-13 -3.86882e-13 -500)
(-1.07966e-12 -9.53907e-13 -500)
(1.14327e-12 -1.50595e-12 -500)
(1.82315e-12 -1.13289e-13 -500)
(-1.4321e-12 -6.7058e-13 -500)
(-7.10975e-12 -1.14544e-12 -500)
(6.59872e-12 6.12736e-13 -500)
(2.80802e-12 6.32179e-13 -500)
(2.57237e-13 3.92557e-13 -500)
(1.4231e-14 1.37692e-12 -500)
(-1.34619e-12 1.33629e-12 -500)
(-3.28157e-13 1.6372e-12 -500)
(1.21113e-12 1.49641e-12 -500)
(-1.897e-14 5.83768e-13 -500)
(-4.00418e-13 1.49684e-12 -500)
(-1.02294e-12 -2.42322e-14 -500)
(-5.75036e-13 -1.35348e-13 -500)
(6.36997e-13 1.5101e-12 -500)
(1.22379e-12 7.87992e-13 -500)
(9.86109e-13 1.31287e-12 -500)
(-7.64469e-13 1.75484e-12 -500)
(-9.94034e-13 2.15403e-12 -500)
(1.15323e-12 2.67382e-12 -500)
(6.83477e-13 1.28468e-12 -500)
(-2.56793e-12 7.03691e-13 -500)
(-7.23807e-12 1.75384e-12 -500)
(9.15549e-12 2.77387e-12 -500)
(1.76738e-12 1.46335e-12 -500)
(6.57567e-14 2.16917e-13 -500)
(5.39175e-14 1.06311e-12 -500)
(-4.56255e-13 2.17308e-14 -500)
(-1.25101e-13 3.6538e-12 -500)
(3.85419e-13 5.92561e-13 -500)
(2.44504e-14 1.11573e-12 -500)
(-2.11816e-12 5.8601e-13 -500)
(-1.14923e-12 2.23821e-13 -500)
(1.29634e-12 6.67053e-13 -500)
(1.37213e-12 2.06614e-12 -500)
(2.46043e-13 1.77637e-12 -500)
(2.56067e-13 9.9213e-13 -500)
(-8.87674e-15 4.95887e-14 -500)
(-4.54439e-13 1.88736e-12 -500)
(1.78084e-13 2.29167e-12 -500)
(1.78746e-13 1.25377e-13 -500)
(-5.08655e-13 1.1975e-12 -500)
(-1.05835e-11 2.12922e-12 -500)
(1.15276e-11 1.10393e-19 -500)
(1.51278e-13 1.65281e-15 -500)
(-1.4517e-18 4.11612e-16 -500)
(4.71985e-24 -1.09984e-19 -500)
(-1.91994e-15 7.97349e-15 -500)
(-9.40411e-26 7.30707e-20 -500)
(-4.31324e-24 4.2968e-15 -500)
(-1.28742e-15 1.13659e-21 -500)
(-7.41588e-13 6.65865e-14 -500)
(-1.13342e-12 2.97353e-13 -500)
(8.59979e-13 6.5601e-13 -500)
(1.39836e-12 1.75891e-13 -500)
(2.01629e-14 1.18436e-20 -500)
(2.562e-16 2.04751e-14 -500)
(-2.37678e-24 -1.52893e-14 -500)
(1.20236e-24 -1.21278e-15 -500)
(2.80433e-24 4.24867e-20 -500)
(-7.06921e-21 4.86257e-15 -500)
(1.83086e-15 1.65282e-15 -500)
(-1.16821e-11 -4.87571e-16 -500)
(1.15276e-11 1.54516e-22 -500)
(1.51278e-13 4.71255e-23 -500)
(-1.4517e-18 1.22663e-22 -500)
(5.80423e-25 1.24331e-22 -500)
(5.74427e-29 1.61873e-23 -500)
(-6.06587e-29 5.41273e-23 -500)
(-9.75609e-25 4.90942e-23 -500)
(3.08975e-15 7.67914e-23 -500)
(-2.53769e-12 -1.53893e-13 -500)
(-6.62347e-13 -2.89767e-13 -500)
(1.75208e-12 6.9493e-13 -500)
(9.85551e-13 1.36855e-13 -500)
(1.76111e-14 9.09054e-23 -500)
(2.13784e-24 7.11065e-23 -500)
(-2.6487e-29 5.19965e-23 -500)
(-2.76437e-29 8.34596e-23 -500)
(-5.79986e-25 7.3576e-23 -500)
(-7.0684e-21 5.46121e-23 -500)
(1.83086e-15 3.72892e-23 -500)
(-1.16821e-11 1.45041e-22 -500)
(1.15276e-11 3.90141e-27 -500)
(1.51278e-13 2.69669e-28 -500)
(-1.4517e-18 2.8323e-27 -500)
(5.80335e-25 3.3506e-27 -500)
(2.79098e-29 2.03182e-29 -500)
(-8.79286e-29 2.77541e-27 -500)
(7.7118e-15 -5.16802e-28 -500)
(-1.2017e-13 1.20683e-14 -500)
(-1.59261e-12 1.8083e-13 -500)
(-3.79135e-13 6.38919e-13 -500)
(9.80172e-13 -1.15623e-14 -500)
(4.8948e-13 1.19774e-13 -500)
(2.53351e-15 2.324e-23 -500)
(3.11068e-24 4.88363e-28 -500)
(1.14011e-29 -3.06949e-28 -500)
(-2.78651e-29 1.30547e-27 -500)
(-5.79991e-25 5.53573e-28 -500)
(-7.0684e-21 2.34825e-27 -500)
(1.83086e-15 8.54314e-28 -500)
(-1.16821e-11 2.42236e-27 -500)
(1.15276e-11 -7.88449e-29 -500)
(1.51278e-13 -1.54859e-29 -500)
(-1.4517e-18 -1.91427e-27 -500)
(5.80335e-25 -1.91446e-27 -500)
(2.78936e-29 -1.91647e-27 -500)
(-8.79854e-29 -1.91563e-27 -500)
(-5.42884e-24 -1.90768e-27 -500)
(-3.59166e-15 2.85002e-16 -500)
(-9.56464e-13 2.15294e-13 -500)
(-8.30171e-13 5.99255e-13 -500)
(8.93723e-13 3.91959e-13 -500)
(1.03979e-12 1.42693e-13 -500)
(5.29942e-16 1.50929e-23 -500)
(1.085e-24 -1.59819e-27 -500)
(1.65823e-31 -1.9157e-27 -500)
(-2.78766e-29 -1.91506e-27 -500)
(-5.79991e-25 -1.91564e-27 -500)
(-7.0684e-21 -1.91594e-27 -500)
(1.83086e-15 -1.55597e-29 -500)
(-1.16821e-11 -7.89888e-29 -500)
(1.15276e-11 -2.65388e-23 -500)
(1.51278e-13 -2.2291e-23 -500)
(-1.4517e-18 -2.23156e-23 -500)
(5.80335e-25 -2.23156e-23 -500)
(2.78997e-29 -2.23156e-23 -500)
(-8.776e-29 -2.23156e-23 -500)
(-3.24677e-24 -2.23154e-23 -500)
(1.00019e-15 7.83458e-23 -500)
(-6.17657e-13 1.38609e-13 -500)
(-5.48338e-14 4.63831e-13 -500)
(5.18689e-13 -2.55674e-13 -500)
(-3.22824e-13 -1.36844e-13 -500)
(9.71087e-15 -1.11723e-22 -500)
(1.93572e-24 -2.23157e-23 -500)
(2.615e-31 -2.23156e-23 -500)
(-2.7876e-29 -2.23156e-23 -500)
(-5.79991e-25 -2.23156e-23 -500)
(-7.0684e-21 -2.23156e-23 -500)
(1.83086e-15 -2.2291e-23 -500)
(-1.16821e-11 -2.65388e-23 -500)
(1.15276e-11 -1.40114e-21 -500)
(1.51278e-13 -5.02256e-22 -500)
(-1.45171e-18 -5.15457e-20 -500)
(5.80335e-25 -5.15457e-20 -500)
(2.78683e-29 -5.15457e-20 -500)
(-4.98643e-29 -5.15457e-20 -500)
(-2.2755e-24 -5.15457e-20 -500)
(1.85007e-15 -5.15918e-20 -500)
(-3.53331e-13 1.86365e-13 -500)
(-9.30304e-13 5.03541e-13 -500)
(2.67573e-13 -6.7744e-13 -500)
(1.54958e-12 -1.71294e-13 -500)
(2.93536e-15 -5.15659e-20 -500)
(4.72813e-24 -5.15458e-20 -500)
(8.67061e-31 -5.15457e-20 -500)
(-2.78277e-29 -5.15457e-20 -500)
(-5.79991e-25 -5.15457e-20 -500)
(-7.05944e-21 -5.15457e-20 -500)
(1.83086e-15 -5.02259e-22 -500)
(-1.16821e-11 -1.40114e-21 -500)
(1.15276e-11 -7.59677e-15 -500)
(1.51277e-13 1.83092e-15 -500)
(-1.45874e-18 1.83087e-15 -500)
(5.80438e-25 1.83087e-15 -500)
(1.06317e-31 1.83087e-15 -500)
(-4.72876e-29 1.83087e-15 -500)
(-5.29911e-24 1.83087e-15 -500)
(5.47318e-14 -3.23195e-14 -500)
(4.33097e-13 -4.35014e-13 -500)
(-5.28384e-13 -1.74245e-12 -500)
(-7.01933e-14 -6.71101e-13 -500)
(8.46384e-13 -1.68353e-14 -500)
(-3.39167e-18 1.83087e-15 -500)
(3.92683e-24 1.83087e-15 -500)
(4.99779e-29 1.83087e-15 -500)
(-8.3689e-32 1.83087e-15 -500)
(-5.80437e-25 1.83087e-15 -500)
(-2.25283e-23 1.83087e-15 -500)
(1.83205e-15 1.83092e-15 -500)
(-1.16821e-11 -7.59677e-15 -500)
(1.15213e-11 -1.16739e-11 -500)
(1.57749e-13 -1.16821e-11 -500)
(-1.08744e-16 -1.16821e-11 -500)
(1.93357e-24 -1.16821e-11 -500)
(1.3233e-29 -1.16821e-11 -500)
(-2.85357e-31 -1.16821e-11 -500)
(2.22525e-15 -1.16821e-11 -500)
(-4.06439e-13 -1.16188e-11 -500)
(-2.53913e-12 -1.09332e-11 -500)
(-1.29394e-13 -8.50734e-12 -500)
(1.71075e-12 -8.96685e-12 -500)
(4.46852e-13 -1.09725e-11 -500)
(-9.00959e-15 -1.16821e-11 -500)
(2.69315e-24 -1.16821e-11 -500)
(3.68158e-29 -1.16821e-11 -500)
(-1.31487e-29 -1.16821e-11 -500)
(-1.93354e-24 -1.16821e-11 -500)
(-9.01661e-22 -1.16821e-11 -500)
(-7.59673e-15 -1.16821e-11 -500)
(-1.16739e-11 -1.16739e-11 -500)
(5.10486e-12 5.10486e-12 -500)
(-6.37879e-14 5.10037e-12 -500)
(-2.53229e-15 5.10037e-12 -500)
(9.78451e-25 5.10037e-12 -500)
(1.66529e-29 5.10037e-12 -500)
(-4.16673e-29 5.10037e-12 -500)
(1.02712e-14 5.10037e-12 -500)
(-1.23475e-13 5.04278e-12 -500)
(-1.20428e-12 4.40774e-12 -500)
(-1.0383e-12 3.54778e-12 -500)
(7.49496e-13 3.55394e-12 -500)
(1.31385e-12 4.65019e-12 -500)
(2.68099e-20 5.10037e-12 -500)
(2.02121e-24 5.10037e-12 -500)
(1.25684e-28 5.10037e-12 -500)
(-1.66243e-29 5.10037e-12 -500)
(-9.7842e-25 5.10037e-12 -500)
(-1.11391e-21 5.10037e-12 -500)
(3.74903e-15 5.10037e-12 -500)
(-5.0515e-12 5.10486e-12 -500)
(5.10037e-12 -6.428e-14 -500)
(-5.6988e-14 -5.69881e-14 -500)
(-3.73173e-16 -5.6988e-14 -500)
(8.0285e-25 -5.6988e-14 -500)
(9.40397e-32 -5.6988e-14 -500)
(-7.66283e-29 -5.6988e-14 -500)
(-3.88922e-24 -5.6988e-14 -500)
(-3.88573e-15 -5.69299e-14 -500)
(-9.16409e-13 3.66153e-13 -500)
(-5.60057e-13 7.96604e-13 -500)
(4.78957e-13 8.14165e-13 -500)
(7.11051e-13 1.39858e-13 -500)
(5.40796e-23 -5.6988e-14 -500)
(2.28264e-24 -5.6988e-14 -500)
(3.45251e-31 -5.6988e-14 -500)
(-5.89272e-32 -5.6988e-14 -500)
(-8.02849e-25 -5.6988e-14 -500)
(-2.13034e-23 -5.6988e-14 -500)
(2.523e-15 -5.69881e-14 -500)
(-5.0462e-12 -6.428e-14 -500)
(5.10037e-12 -2.55917e-15 -500)
(-5.6988e-14 -3.73172e-16 -500)
(-3.73164e-16 -3.73107e-16 -500)
(8.03736e-25 -3.73107e-16 -500)
(3.56901e-29 -3.73107e-16 -500)
(-1.05405e-28 -3.73107e-16 -500)
(-5.37715e-24 -3.73107e-16 -500)
(4.351e-15 -3.73107e-16 -500)
(-6.95404e-13 -8.10484e-14 -500)
(-7.19467e-13 -4.37686e-13 -500)
(5.51304e-13 -2.39967e-13 -500)
(7.59313e-13 -5.83257e-14 -500)
(7.71747e-22 -3.73107e-16 -500)
(1.02426e-25 -3.73107e-16 -500)
(1.64628e-29 -3.73107e-16 -500)
(-3.5662e-29 -3.73107e-16 -500)
(-8.03296e-25 -3.73107e-16 -500)
(-9.03818e-21 -3.73107e-16 -500)
(2.52299e-15 -3.73172e-16 -500)
(-5.0462e-12 -2.55917e-15 -500)
(5.10037e-12 -1.53958e-23 -500)
(-5.6988e-14 3.75805e-23 -500)
(-3.73164e-16 3.76171e-23 -500)
(8.03736e-25 3.76171e-23 -500)
(3.57034e-29 3.76171e-23 -500)
(-2.50917e-29 3.76171e-23 -500)
(-1.08554e-24 3.76176e-23 -500)
(3.74744e-14 7.49677e-15 -500)
(-1.69982e-12 -7.68704e-14 -500)
(-9.80801e-13 -7.69196e-13 -500)
(1.23409e-12 -1.92581e-13 -500)
(1.37489e-12 -6.42382e-14 -500)
(1.16481e-21 1.48219e-23 -500)
(2.67146e-24 3.76172e-23 -500)
(1.681e-29 3.76171e-23 -500)
(-3.56567e-29 3.76171e-23 -500)
(-8.03295e-25 3.76171e-23 -500)
(-9.03818e-21 3.76171e-23 -500)
(2.52299e-15 3.75806e-23 -500)
(-5.0462e-12 -1.53958e-23 -500)
(5.10037e-12 6.91517e-29 -500)
(-5.6988e-14 2.25134e-29 -500)
(-3.73164e-16 2.46246e-27 -500)
(8.03736e-25 2.46245e-27 -500)
(3.56994e-29 2.46336e-27 -500)
(-6.08655e-29 2.46319e-27 -500)
(-3.14353e-24 1.02461e-27 -500)
(6.50839e-14 1.9852e-16 -500)
(-2.05182e-12 1.98626e-13 -500)
(-9.85015e-13 4.49726e-13 -500)
(1.48554e-12 4.71877e-14 -500)
(1.20332e-12 9.36278e-16 -500)
(4.35009e-17 1.58735e-23 -500)
(1.63597e-25 2.32e-27 -500)
(1.14318e-32 2.46202e-27 -500)
(-3.56653e-29 2.46038e-27 -500)
(-8.03295e-25 2.46366e-27 -500)
(-9.03818e-21 2.46201e-27 -500)
(2.52299e-15 2.03046e-29 -500)
(-5.0462e-12 6.93244e-29 -500)
(5.10037e-12 -3.64081e-27 -500)
(-5.6988e-14 -3.48583e-28 -500)
(-3.73164e-16 -2.29037e-27 -500)
(8.03736e-25 -3.71965e-27 -500)
(3.57048e-29 -3.15891e-27 -500)
(-9.59696e-29 -2.01399e-27 -500)
(-5.08435e-24 -2.56867e-27 -500)
(3.57695e-14 8.10636e-23 -500)
(-5.16913e-13 3.39131e-13 -500)
(-8.1009e-13 1.24448e-12 -500)
(6.23145e-13 3.59235e-14 -500)
(1.1852e-12 -6.84975e-14 -500)
(3.24854e-21 -1.45296e-22 -500)
(2.54746e-24 -5.97085e-27 -500)
(4.1783e-29 -3.95824e-27 -500)
(-3.56483e-29 -4.29026e-27 -500)
(-8.03295e-25 -4.49469e-28 -500)
(-9.03818e-21 -2.8043e-27 -500)
(2.52299e-15 -1.09409e-27 -500)
(-5.0462e-12 -3.63679e-27 -500)
(5.10037e-12 1.57753e-15 -500)
(-5.6988e-14 -5.86556e-23 -500)
(-3.73164e-16 -6.90527e-23 -500)
(8.03686e-25 -5.40057e-23 -500)
(9.83136e-29 -2.74255e-23 -500)
(-8.91577e-29 -8.41655e-24 -500)
(-2.19623e-24 -5.25275e-23 -500)
(5.04889e-14 -9.57285e-24 -500)
(3.41634e-13 -8.30805e-14 -500)
(-7.91975e-13 -1.64993e-13 -500)
(1.74599e-13 3.62973e-13 -500)
(1.38183e-12 7.82502e-14 -500)
(2.60353e-20 -6.9103e-23 -500)
(6.4139e-24 -1.74063e-22 -500)
(1.12858e-28 -8.1562e-23 -500)
(-5.67608e-30 -1.74662e-22 -500)
(-8.03295e-25 -1.15735e-23 -500)
(-9.03818e-21 -8.31746e-23 -500)
(2.52299e-15 -1.63951e-22 -500)
(-5.0462e-12 2.78232e-18 -500)
(5.09019e-12 -3.1162e-14 -500)
(-5.69589e-14 7.24668e-16 -500)
(-3.73158e-16 1.18652e-14 -500)
(-3.00737e-22 3.00031e-14 -500)
(1.36032e-19 5.57577e-14 -500)
(-2.11909e-20 3.70242e-14 -500)
(-5.16256e-24 4.5597e-15 -500)
(5.68695e-15 7.07393e-15 -500)
(-1.03945e-12 -1.79771e-13 -500)
(-4.35861e-13 -6.19146e-13 -500)
(7.38053e-13 2.6523e-13 -500)
(5.66609e-13 1.1243e-13 -500)
(1.27102e-17 6.39514e-15 -500)
(-2.07454e-19 9.32019e-15 -500)
(1.06325e-20 8.68055e-15 -500)
(4.56455e-20 3.7011e-14 -500)
(-5.26108e-15 7.69429e-14 -500)
(-6.07075e-15 3.6904e-14 -500)
(2.54125e-15 1.60924e-15 -500)
(-5.04358e-12 -6.76947e-15 -500)
(4.58197e-12 -1.15078e-12 -500)
(1.63582e-13 -1.32212e-12 -500)
(2.0831e-14 -8.08212e-13 -500)
(-7.96836e-15 -1.33766e-12 -500)
(1.94535e-13 -1.12797e-12 -500)
(-5.75899e-14 -1.65465e-13 -500)
(-1.16571e-13 -1.76127e-12 -500)
(4.37367e-14 -8.18812e-13 -500)
(-6.5444e-13 -3.75861e-13 -500)
(-4.22736e-13 -1.16488e-13 -500)
(6.10759e-13 -2.97066e-13 -500)
(3.67268e-13 -6.47064e-13 -500)
(3.05816e-15 -1.03618e-12 -500)
(9.04339e-15 -1.35233e-12 -500)
(5.58306e-14 -1.10201e-12 -500)
(1.31468e-13 -1.16393e-12 -500)
(9.236e-14 -4.97284e-13 -500)
(-8.69069e-14 1.6885e-13 -500)
(-1.34671e-13 -9.53547e-13 -500)
(-4.70886e-12 -2.98129e-13 -500)
(3.50154e-12 -6.04257e-13 -500)
(9.14458e-13 -7.21108e-13 -500)
(-1.48634e-13 -9.77552e-13 -500)
(-2.80561e-13 -2.17009e-12 -500)
(7.15089e-13 -7.10074e-13 -500)
(-3.18481e-13 -1.07537e-12 -500)
(-6.69585e-14 -6.87335e-13 -500)
(6.81729e-13 -1.31284e-12 -500)
(-3.03405e-13 -4.45932e-13 -500)
(-2.4607e-13 -1.782e-13 -500)
(-6.416e-14 -8.10051e-13 -500)
(9.42242e-14 -8.27465e-13 -500)
(-2.08172e-13 -5.41212e-13 -500)
(-2.76594e-13 -4.87522e-13 -500)
(2.32058e-14 -7.3684e-13 -500)
(2.98536e-13 -7.38504e-13 -500)
(8.976e-13 -4.71709e-13 -500)
(1.10172e-13 4.11691e-15 -500)
(-8.35413e-13 -3.60017e-13 -500)
(-4.22526e-12 3.36014e-13 -500)
(4.12976e-12 7.79779e-13 -500)
(1.51518e-13 7.64845e-13 -500)
(-1.39107e-12 6.98612e-13 -500)
(3.30121e-13 1.18649e-12 -500)
(7.87317e-13 8.50341e-13 -500)
(8.54514e-14 4.46007e-13 -500)
(-3.08731e-14 1.18142e-12 -500)
(2.28546e-13 5.02902e-13 -500)
(2.94185e-13 5.06176e-13 -500)
(-8.89606e-13 9.47084e-14 -500)
(-2.5364e-13 2.69613e-14 -500)
(8.8491e-13 7.41665e-13 -500)
(4.1884e-13 6.43503e-13 -500)
(-1.90682e-13 1.0731e-12 -500)
(-1.22774e-13 9.82873e-13 -500)
(2.77691e-13 1.10525e-12 -500)
(6.59421e-13 7.36972e-13 -500)
(1.50005e-13 9.39554e-14 -500)
(-1.94233e-13 5.59531e-13 -500)
(-5.20596e-12 5.0123e-13 -500)
(4.94116e-12 3.42417e-13 -500)
(-2.03051e-13 7.82623e-13 -500)
(-3.59033e-13 1.3789e-12 -500)
(9.57132e-14 3.42778e-12 -500)
(2.15258e-13 7.63554e-13 -500)
(9.27069e-15 1.60469e-12 -500)
(-1.09288e-13 6.34021e-13 -500)
(-2.68913e-14 2.08114e-12 -500)
(-6.24186e-13 4.19104e-13 -500)
(-6.66372e-13 -3.79335e-13 -500)
(6.44506e-13 6.81793e-13 -500)
(8.79708e-13 1.15844e-12 -500)
(1.72685e-13 5.27636e-13 -500)
(-1.09036e-13 5.63167e-13 -500)
(2.77612e-14 1.50462e-12 -500)
(2.00298e-13 9.01459e-13 -500)
(1.24064e-14 7.16578e-13 -500)
(-3.72231e-14 1.10878e-13 -500)
(1.21887e-13 4.87577e-13 -500)
(-4.89896e-12 -7.92831e-13 -500)
(5.10037e-12 1.38857e-19 -500)
(-5.6988e-14 8.91647e-21 -500)
(-3.73164e-16 3.12208e-20 -500)
(7.83743e-24 -3.90554e-18 -500)
(-4.22335e-26 -1.14053e-21 -500)
(-4.76038e-24 8.73686e-20 -500)
(-8.21492e-25 9.50067e-21 -500)
(1.26729e-15 2.41262e-24 -500)
(-2.08601e-12 1.47038e-13 -500)
(-7.9273e-13 2.92038e-13 -500)
(1.33256e-12 1.97738e-13 -500)
(8.46938e-13 4.44681e-14 -500)
(2.59683e-20 -1.69444e-20 -500)
(3.58611e-24 9.31786e-21 -500)
(-3.97346e-24 7.27801e-22 -500)
(1.18314e-24 -2.71443e-15 -500)
(1.27742e-24 4.64128e-20 -500)
(-9.04008e-21 7.18218e-20 -500)
(2.52299e-15 2.0704e-20 -500)
(-5.0462e-12 1.49621e-16 -500)
(5.10037e-12 6.45003e-23 -500)
(-5.6988e-14 7.81287e-23 -500)
(-3.73164e-16 1.00522e-22 -500)
(8.03849e-25 1.42408e-22 -500)
(5.21325e-29 -7.80546e-23 -500)
(-7.83179e-29 9.7557e-23 -500)
(-1.04203e-24 8.43717e-23 -500)
(-2.30907e-15 7.26232e-23 -500)
(-1.63777e-13 1.47067e-13 -500)
(-4.7097e-13 6.82132e-13 -500)
(6.34885e-13 -1.74039e-13 -500)
(6.84287e-13 -1.10618e-13 -500)
(-1.07269e-16 8.45952e-23 -500)
(3.88068e-25 4.78388e-23 -500)
(-5.51149e-29 4.96275e-23 -500)
(-3.54369e-29 5.51498e-23 -500)
(-8.0329e-25 8.43652e-23 -500)
(-9.03818e-21 8.16172e-23 -500)
(2.52299e-15 5.12949e-23 -500)
(-5.0462e-12 8.31826e-23 -500)
(5.10037e-12 4.86762e-27 -500)
(-5.6988e-14 5.23089e-28 -500)
(-3.73164e-16 3.59659e-27 -500)
(8.03736e-25 4.28612e-27 -500)
(3.56909e-29 -4.15836e-29 -500)
(-1.12406e-28 3.67845e-27 -500)
(-5.0319e-24 -4.73488e-28 -500)
(2.6273e-14 -1.38283e-22 -500)
(-8.39915e-13 -1.67041e-13 -500)
(-1.05756e-12 -4.29066e-13 -500)
(8.24911e-13 -2.10165e-13 -500)
(1.79424e-12 -2.4814e-14 -500)
(-1.19572e-15 -9.41321e-24 -500)
(1.46498e-24 5.77662e-28 -500)
(1.42058e-29 3.98732e-29 -500)
(-3.56549e-29 1.74141e-27 -500)
(-8.03295e-25 7.02015e-28 -500)
(-9.03818e-21 3.12288e-27 -500)
(2.52299e-15 1.2618e-27 -500)
(-5.0462e-12 2.98218e-27 -500)
(5.10037e-12 -7.16339e-29 -500)
(-5.6988e-14 -1.91595e-29 -500)
(-3.73164e-16 -2.45845e-27 -500)
(8.03736e-25 -2.45795e-27 -500)
(3.56858e-29 -2.46231e-27 -500)
(-1.12539e-28 -2.45855e-27 -500)
(-6.66609e-24 -2.45611e-27 -500)
(1.07918e-14 6.76793e-26 -500)
(-1.58658e-12 -5.66188e-15 -500)
(-9.16947e-13 4.81977e-14 -500)
(1.0781e-12 8.80476e-14 -500)
(1.27706e-12 -8.42677e-15 -500)
(-6.22366e-15 -1.46924e-23 -500)
(1.28722e-24 -2.06467e-27 -500)
(2.24472e-31 -2.45967e-27 -500)
(-3.56608e-29 -2.45936e-27 -500)
(-8.03295e-25 -2.45942e-27 -500)
(-9.03818e-21 -2.45909e-27 -500)
(2.52299e-15 -1.95688e-29 -500)
(-5.0462e-12 -7.12805e-29 -500)
(5.10037e-12 1.53958e-23 -500)
(-5.6988e-14 -3.75805e-23 -500)
(-3.73164e-16 -3.76122e-23 -500)
(8.03736e-25 -3.76122e-23 -500)
(3.56929e-29 -3.76122e-23 -500)
(-1.12274e-28 -3.76122e-23 -500)
(-4.2635e-24 -3.76119e-23 -500)
(7.05194e-15 7.41435e-23 -500)
(-1.09586e-12 2.86312e-14 -500)
(-1.12946e-12 2.35423e-13 -500)
(8.5162e-13 -7.57005e-14 -500)
(1.70267e-12 -1.84972e-14 -500)
(-9.27438e-16 -9.064e-23 -500)
(1.82631e-25 -3.76122e-23 -500)
(-3.73718e-33 -3.76122e-23 -500)
(-3.56666e-29 -3.76122e-23 -500)
(-8.03295e-25 -3.76122e-23 -500)
(-9.03818e-21 -3.76122e-23 -500)
(2.52299e-15 -3.75805e-23 -500)
(-5.0462e-12 1.53958e-23 -500)
(5.10037e-12 -9.19342e-22 -500)
(-5.6988e-14 -5.15817e-22 -500)
(-3.73164e-16 -6.60502e-20 -500)
(8.03735e-25 -6.60503e-20 -500)
(3.56538e-29 -6.60503e-20 -500)
(-6.37985e-29 -6.60503e-20 -500)
(-2.8237e-24 -6.60503e-20 -500)
(9.46447e-15 -6.61683e-20 -500)
(-1.27527e-12 -6.64574e-14 -500)
(-1.00227e-12 -2.31607e-13 -500)
(9.7046e-13 -9.70059e-14 -500)
(1.25638e-12 7.38645e-14 -500)
(-2.28716e-21 -6.61212e-20 -500)
(3.74242e-24 -6.60503e-20 -500)
(7.21146e-31 -6.60503e-20 -500)
(-3.56074e-29 -6.60503e-20 -500)
(-8.03295e-25 -6.60503e-20 -500)
(-9.02667e-21 -6.60502e-20 -500)
(2.52299e-15 -5.15822e-22 -500)
(-5.0462e-12 -9.19342e-22 -500)
(5.10037e-12 3.75008e-15 -500)
(-5.69899e-14 2.52305e-15 -500)
(-3.73173e-16 2.52298e-15 -500)
(8.03944e-25 2.52298e-15 -500)
(1.40637e-31 2.52298e-15 -500)
(-6.03303e-29 2.52298e-15 -500)
(-6.18473e-24 2.52298e-15 -500)
(4.52966e-15 1.94617e-15 -500)
(-1.51375e-12 6.02688e-14 -500)
(-9.61639e-13 -2.18913e-13 -500)
(6.54696e-13 -4.54137e-13 -500)
(1.28798e-12 -6.48707e-14 -500)
(-3.85092e-17 2.52298e-15 -500)
(3.5043e-24 2.52298e-15 -500)
(6.36595e-29 2.52298e-15 -500)
(-1.07869e-31 2.52298e-15 -500)
(-8.03942e-25 2.52298e-15 -500)
(-2.51097e-23 2.52298e-15 -500)
(2.5249e-15 2.52305e-15 -500)
(-5.0462e-12 3.75008e-15 -500)
(5.10486e-12 -5.0515e-12 -500)
(-6.42801e-14 -5.04619e-12 -500)
(-2.55917e-15 -5.04619e-12 -500)
(9.79432e-25 -5.04619e-12 -500)
(1.66808e-29 -5.04619e-12 -500)
(-4.01297e-31 -5.04619e-12 -500)
(6.52265e-18 -5.04619e-12 -500)
(3.28867e-14 -5.01809e-12 -500)
(-2.518e-13 -4.71042e-12 -500)
(-5.36955e-13 -3.81449e-12 -500)
(5.83245e-13 -3.55278e-12 -500)
(1.01026e-12 -4.75423e-12 -500)
(-3.27754e-17 -5.04619e-12 -500)
(3.47504e-24 -5.04619e-12 -500)
(4.71387e-29 -5.04619e-12 -500)
(-1.66494e-29 -5.04619e-12 -500)
(-9.79401e-25 -5.04619e-12 -500)
(-1.11622e-21 -5.04619e-12 -500)
(3.75012e-15 -5.04619e-12 -500)
(-5.0515e-12 -5.0515e-12 -500)
(6.36364e-12 6.36364e-12 -500)
(1.60061e-14 6.36495e-12 -500)
(3.09999e-24 6.36495e-12 -500)
(9.78177e-25 6.36495e-12 -500)
(2.92783e-31 6.36495e-12 -500)
(-4.87395e-31 6.36495e-12 -500)
(1.25026e-15 6.36495e-12 -500)
(1.86934e-15 6.36396e-12 -500)
(7.50405e-14 6.01487e-12 -500)
(-1.22209e-12 4.89461e-12 -500)
(1.21779e-13 3.30283e-12 -500)
(1.81079e-12 4.74434e-12 -500)
(3.96576e-23 6.36495e-12 -500)
(1.65148e-24 6.36495e-12 -500)
(2.45504e-31 6.36495e-12 -500)
(-2.70467e-31 6.36495e-12 -500)
(-9.78177e-25 6.36495e-12 -500)
(-3.09999e-24 6.36495e-12 -500)
(-3.73931e-15 6.36495e-12 -500)
(-6.37403e-12 6.36364e-12 -500)
(6.36495e-12 1.60051e-14 -500)
(1.60141e-14 1.60141e-14 -500)
(2.13029e-23 1.60141e-14 -500)
(8.02869e-25 1.60141e-14 -500)
(1.04738e-31 1.60141e-14 -500)
(-9.65978e-32 1.60141e-14 -500)
(-7.57031e-25 1.60141e-14 -500)
(-8.60855e-16 1.60141e-14 -500)
(-1.1789e-12 -2.87776e-13 -500)
(-7.21977e-13 -4.92673e-13 -500)
(8.13622e-13 8.35484e-13 -500)
(1.12405e-12 8.85302e-13 -500)
(9.4736e-23 1.60141e-14 -500)
(4.59598e-24 1.60141e-14 -500)
(7.49989e-31 1.60141e-14 -500)
(-4.92688e-32 1.60141e-14 -500)
(-8.02868e-25 1.60141e-14 -500)
(-2.13029e-23 1.60141e-14 -500)
(-5.00924e-15 1.60141e-14 -500)
(-6.37533e-12 1.60051e-14 -500)
(6.36495e-12 -1.93861e-22 -500)
(1.60141e-14 5.1582e-22 -500)
(2.13034e-23 5.15841e-22 -500)
(8.02869e-25 5.15841e-22 -500)
(9.1909e-32 5.15841e-22 -500)
(-5.39318e-31 5.15841e-22 -500)
(-4.69694e-24 5.15841e-22 -500)
(5.35667e-15 4.93525e-22 -500)
(-1.67632e-12 -8.95246e-14 -500)
(-9.96598e-13 -1.29388e-13 -500)
(9.82587e-13 -5.65802e-13 -500)
(1.42613e-12 -4.95487e-14 -500)
(-5.01785e-21 5.4222e-22 -500)
(1.88799e-24 5.15841e-22 -500)
(3.57914e-31 5.15841e-22 -500)
(-5.60036e-32 5.15841e-22 -500)
(-8.02868e-25 5.15841e-22 -500)
(-2.13034e-23 5.15841e-22 -500)
(-5.00924e-15 5.1582e-22 -500)
(-6.37533e-12 -1.93861e-22 -500)
(6.36495e-12 -1.53989e-23 -500)
(1.60141e-14 3.7583e-23 -500)
(2.13034e-23 3.75831e-23 -500)
(8.02869e-25 3.75831e-23 -500)
(9.34586e-32 3.75831e-23 -500)
(-4.76068e-31 3.75831e-23 -500)
(-3.94268e-24 3.75831e-23 -500)
(2.80776e-15 3.61661e-23 -500)
(-1.17435e-12 1.03238e-13 -500)
(-1.22007e-12 1.21114e-13 -500)
(9.3515e-13 3.47085e-13 -500)
(1.99238e-12 2.50702e-13 -500)
(9.56673e-23 4.04565e-23 -500)
(4.77004e-24 3.75831e-23 -500)
(7.76625e-31 3.75831e-23 -500)
(-4.93196e-32 3.75831e-23 -500)
(-8.02868e-25 3.75831e-23 -500)
(-2.13034e-23 3.75831e-23 -500)
(-5.00924e-15 3.7583e-23 -500)
(-6.37533e-12 -1.53989e-23 -500)
(6.36495e-12 -1.16781e-29 -500)
(1.60141e-14 2.23021e-29 -500)
(2.13034e-23 2.23235e-29 -500)
(8.02869e-25 2.28252e-29 -500)
(9.26504e-32 2.37907e-29 -500)
(-5.40157e-31 2.30034e-29 -500)
(-5.04895e-24 7.63849e-30 -500)
(-7.33038e-16 -5.792e-23 -500)
(-7.69924e-13 1.9528e-13 -500)
(-5.61226e-13 4.83691e-13 -500)
(7.69463e-13 5.41764e-13 -500)
(2.70119e-13 1.20168e-13 -500)
(8.73029e-16 7.96151e-23 -500)
(2.30658e-24 5.10926e-29 -500)
(3.986e-31 2.30196e-29 -500)
(-5.60796e-32 2.13086e-29 -500)
(-8.02868e-25 2.31735e-29 -500)
(-2.13034e-23 2.24336e-29 -500)
(-5.00924e-15 2.03147e-29 -500)
(-6.37533e-12 -1.13139e-29 -500)
(6.36495e-12 -6.4042e-29 -500)
(1.60141e-14 -4.57517e-29 -500)
(2.13034e-23 -4.38369e-29 -500)
(8.02869e-25 -3.20843e-29 -500)
(8.87338e-32 -4.24786e-30 -500)
(-7.06726e-31 -2.36078e-29 -500)
(-5.77477e-24 1.56257e-29 -500)
(-6.48427e-16 1.00596e-22 -500)
(-5.4268e-13 -3.7306e-15 -500)
(-7.22042e-13 1.76462e-13 -500)
(5.03725e-13 1.13013e-13 -500)
(1.16406e-12 -9.25583e-14 -500)
(1.94584e-23 -5.65386e-23 -500)
(1.65141e-24 -1.02875e-28 -500)
(2.3789e-31 -3.23297e-29 -500)
(-5.3741e-32 -7.34053e-29 -500)
(-8.02868e-25 -2.45065e-29 -500)