/*--------------------------------*- C++ -*----------------------------------*\
| =========                 |                                                 |
| \\      /  F ield         | OpenFOAM: The Open Source CFD Toolbox           |
|  \\    /   O peration     | Version:  2412                                  |
|   \\  /    A nd           | Website:  www.openfoam.com                      |
|    \\/     M anipulation  |                                                 |
\*---------------------------------------------------------------------------*/
FoamFile
{
    version     2.0;
    format      ascii;
    arch        "LSB;label=32;scalar=64";
    class       volVectorField;
    location    "0.001";
    object      U;
}
// * * * * * * * * * * * * * * * * * * * * * * * * * * * * * * * * * * * * * //

dimensions      [0 1 -1 0 0 0 0];

internalField   nonuniform List<vector> 
124215
(
(1.1134e-13 1.1134e-13 -500)
(3.80395e-15 1.13109e-13 -500)
(6.47362e-23 1.13109e-13 -500)
(7.18797e-25 1.13109e-13 -500)
(8.68832e-31 1.13109e-13 -500)
(-1.99881e-30 1.13109e-13 -500)
(-1.34817e-24 1.13109e-13 -500)
(1.94612e-19 1.13109e-13 -500)
(1.36523e-15 1.13062e-13 -500)
(-3.94506e-14 1.06485e-13 -500)
(1.89777e-16 8.31061e-14 -500)
(3.79432e-14 1.10695e-13 -500)
(1.22156e-21 1.13109e-13 -500)
(1.13252e-24 1.13109e-13 -500)
(5.79294e-30 1.13109e-13 -500)
(-8.34533e-31 1.13109e-13 -500)
(-7.18795e-25 1.13109e-13 -500)
(-6.47364e-23 1.13109e-13 -500)
(-2.72298e-15 1.13109e-13 -500)
(-1.12429e-13 1.1134e-13 -500)
(1.13109e-13 3.81006e-15 -500)
(3.57275e-17 3.57172e-17 -500)
(4.46863e-24 3.57198e-17 -500)
(8.94472e-26 3.57198e-17 -500)
(1.40666e-32 3.57198e-17 -500)
(-3.50258e-30 3.57198e-17 -500)
(-7.3855e-25 3.57198e-17 -500)
(8.39611e-18 3.57198e-17 -500)
(-1.55821e-15 1.26173e-15 -500)
(-4.44947e-14 4.85261e-14 -500)
(5.0253e-15 3.20069e-14 -500)
(4.41012e-14 1.15365e-15 -500)
(1.97563e-23 3.57198e-17 -500)
(8.11664e-25 3.57198e-17 -500)
(1.27027e-31 3.57198e-17 -500)
(-8.70376e-33 3.57198e-17 -500)
(-8.94469e-26 3.57198e-17 -500)
(-4.46871e-24 3.57198e-17 -500)
(1.04525e-15 3.57172e-17 -500)
(-1.14198e-13 3.81006e-15 -500)
(1.13109e-13 3.64144e-22 -500)
(3.57278e-17 1.22452e-22 -500)
(4.09263e-22 2.97076e-21 -500)
(8.94869e-26 2.97077e-21 -500)
(1.61326e-30 2.97077e-21 -500)
(3.42251e-30 2.97077e-21 -500)
(1.99659e-25 2.97077e-21 -500)
(-4.17673e-22 2.96607e-21 -500)
(5.09574e-14 5.02602e-17 -500)
(-8.36833e-15 1.76452e-14 -500)
(-4.62398e-14 2.43861e-14 -500)
(5.95817e-15 -1.96344e-22 -500)
(6.26953e-23 2.96984e-21 -500)
(4.68612e-25 2.97077e-21 -500)
(7.96176e-31 2.97077e-21 -500)
(-1.60602e-30 2.97077e-21 -500)
(-8.94669e-26 2.97077e-21 -500)
(-4.09263e-22 2.97076e-21 -500)
(1.04525e-15 1.22453e-22 -500)
(-1.14198e-13 3.64144e-22 -500)
(1.13109e-13 1.713e-23 -500)
(3.57278e-17 1.76401e-24 -500)
(4.09263e-22 1.7656e-24 -500)
(8.94869e-26 1.7656e-24 -500)
(1.60929e-30 1.7656e-24 -500)
(-1.2053e-30 1.7656e-24 -500)
(-6.97067e-25 1.76555e-24 -500)
(-1.10942e-22 -7.42015e-23 -500)
(1.34181e-14 -2.23236e-15 -500)
(-1.85133e-14 -1.06786e-13 -500)
(-6.21405e-15 3.05036e-14 -500)
(1.62863e-14 -3.18859e-17 -500)
(8.19522e-23 5.67964e-25 -500)
(1.3632e-24 1.7656e-24 -500)
(9.5755e-31 1.7656e-24 -500)
(-1.60252e-30 1.7656e-24 -500)
(-8.94669e-26 1.7656e-24 -500)
(-4.09263e-22 1.7656e-24 -500)
(1.04525e-15 1.76401e-24 -500)
(-1.14198e-13 1.713e-23 -500)
(1.13109e-13 1.55164e-29 -500)
(3.57278e-17 3.38034e-30 -500)
(4.09263e-22 1.08979e-28 -500)
(8.94869e-26 1.08591e-28 -500)
(1.60045e-30 1.08934e-28 -500)
(-3.10154e-30 1.0855e-28 -500)
(-3.26835e-24 4.24353e-29 -500)
(1.08097e-15 -1.28806e-23 -500)
(-6.39496e-14 -2.19958e-15 -500)
(1.74835e-14 -9.31791e-14 -500)
(6.1384e-14 -5.92737e-15 -500)
(-1.98344e-14 -1.23225e-17 -500)
(2.22253e-23 1.9848e-23 -500)
(9.34037e-25 1.08035e-28 -500)
(1.55435e-31 1.08388e-28 -500)
(-1.60382e-30 1.08785e-28 -500)
(-8.94669e-26 1.0885e-28 -500)
(-4.09263e-22 1.0867e-28 -500)
(1.04525e-15 2.90675e-30 -500)
(-1.14198e-13 1.56473e-29 -500)
(1.13109e-13 -1.80484e-28 -500)
(3.57278e-17 6.36619e-28 -500)
(4.09263e-22 6.88577e-29 -500)
(8.94869e-26 -1.80443e-28 -500)
(1.6058e-30 -8.02498e-29 -500)
(-4.41084e-30 -1.06927e-28 -500)
(-1.30901e-24 2.27824e-28 -500)
(7.27016e-17 6.3774e-23 -500)
(-7.69771e-14 1.35692e-19 -500)
(-2.28862e-14 7.97408e-15 -500)
(8.38825e-14 -4.25527e-14 -500)
(1.41694e-14 -7.90634e-16 -500)
(1.6999e-22 -1.08678e-23 -500)
(1.1633e-24 -2.55541e-28 -500)
(2.0531e-30 -1.95312e-28 -500)
(-1.60095e-30 -1.97954e-28 -500)
(-8.94669e-26 -3.17552e-29 -500)
(-4.09263e-22 -7.03135e-29 -500)
(1.04525e-15 -5.53971e-29 -500)
(-1.14198e-13 -1.77094e-28 -500)
(1.13109e-13 -3.92048e-23 -500)
(3.57278e-17 8.8312e-24 -500)
(4.09263e-22 -1.34947e-23 -500)
(8.94846e-26 -3.02306e-23 -500)
(4.35224e-30 -1.41974e-23 -500)
(-4.07269e-30 -3.11797e-23 -500)
(-8.31242e-25 -7.0887e-25 -500)
(7.66543e-16 -6.58377e-24 -500)
(-5.72443e-14 1.36351e-15 -500)
(-2.72895e-14 5.40851e-14 -500)
(6.37784e-14 -3.25656e-15 -500)
(1.95704e-14 -2.22706e-17 -500)
(6.33665e-22 -1.58684e-24 -500)
(8.07206e-25 -6.68532e-23 -500)
(-2.63323e-30 -4.08636e-23 -500)
(-1.76364e-31 -2.89983e-23 -500)
(-8.94672e-26 -1.73565e-23 -500)
(-4.09263e-22 -2.33985e-23 -500)
(1.04525e-15 -1.68791e-23 -500)
(-1.14198e-13 -3.33747e-23 -500)
(1.13109e-13 -7.58226e-21 -500)
(3.57283e-17 2.06435e-19 -500)
(5.93756e-22 -2.5367e-22 -500)
(-1.36569e-23 -6.97309e-21 -500)
(-3.84911e-18 1.89718e-19 -500)
(-7.13458e-22 -2.02538e-21 -500)
(2.39126e-19 1.98477e-19 -500)
(7.36691e-22 1.92962e-19 -500)
(-1.0651e-14 1.47976e-17 -500)
(-3.90159e-14 1.49167e-14 -500)
(2.33513e-14 3.98673e-15 -500)
(2.73293e-14 1.02032e-16 -500)
(3.83897e-22 1.4629e-20 -500)
(-2.31922e-17 -1.81748e-15 -500)
(4.16587e-22 -5.14865e-21 -500)
(-2.50363e-19 7.42251e-16 -500)
(2.87048e-22 9.49596e-17 -500)
(-6.03366e-22 -3.41652e-21 -500)
(1.04487e-15 -4.1622e-21 -500)
(-1.14198e-13 -4.49448e-21 -500)
(1.15819e-13 9.96509e-16 -500)
(-9.49981e-17 6.86779e-14 -500)
(-2.32094e-15 -2.54704e-15 -500)
(-2.56987e-17 -1.93662e-15 -500)
(-4.86959e-16 -1.40776e-14 -500)
(-5.29983e-16 -1.25919e-14 -500)
(1.39624e-15 -4.95237e-14 -500)
(3.18624e-16 1.8117e-14 -500)
(-6.14741e-14 -1.68082e-14 -500)
(-1.46544e-14 -5.31206e-14 -500)
(6.0324e-14 4.87076e-14 -500)
(1.29552e-14 -6.48309e-14 -500)
(-1.43779e-15 3.43703e-14 -500)
(-2.40834e-15 -1.27146e-13 -500)
(1.68017e-15 -4.83238e-14 -500)
(-2.41745e-16 -7.73959e-14 -500)
(2.65332e-15 -6.50104e-14 -500)
(7.65215e-16 1.73119e-14 -500)
(4.71046e-16 -1.03663e-15 -500)
(-1.14198e-13 -1.78657e-14 -500)
(1.72823e-13 -5.51733e-14 -500)
(-6.68497e-15 4.55129e-14 -500)
(-6.15785e-14 -7.0535e-15 -500)
(-1.55037e-14 2.86139e-14 -500)
(-2.34734e-14 -2.64887e-14 -500)
(-3.1861e-14 -8.26076e-14 -500)
(3.90725e-14 -2.22543e-14 -500)
(2.96897e-14 -2.48656e-14 -500)
(-5.76e-14 -1.22441e-14 -500)
(3.19412e-14 1.3729e-13 -500)
(-1.55623e-14 -2.03675e-14 -500)
(1.00158e-14 -5.47162e-14 -500)
(-5.5171e-14 -2.7281e-14 -500)
(-8.26531e-14 -2.59206e-14 -500)
(5.75321e-14 8.94859e-14 -500)
(-2.56129e-14 2.85311e-14 -500)
(9.14593e-14 -6.14177e-14 -500)
(6.79731e-14 -3.64405e-14 -500)
(-2.89692e-14 4.75407e-14 -500)
(-1.50883e-13 -6.41186e-14 -500)
(1.61978e-13 -1.09697e-15 -500)
(4.6271e-14 -6.00791e-14 -500)
(-2.15473e-14 4.63913e-15 -500)
(-6.63333e-15 2.6617e-15 -500)
(-1.10113e-13 2.2384e-14 -500)
(1.30112e-14 2.91113e-14 -500)
(3.89968e-14 5.42633e-14 -500)
(4.45965e-15 -8.20392e-15 -500)
(1.03369e-13 2.07261e-14 -500)
(-3.18049e-14 -3.49976e-15 -500)
(-1.15008e-13 -2.16569e-14 -500)
(1.98792e-14 6.64692e-14 -500)
(1.61556e-14 -2.25935e-14 -500)
(1.24323e-13 1.33484e-13 -500)
(5.91303e-14 5.25698e-14 -500)
(-1.58725e-13 7.68103e-14 -500)
(-6.04475e-14 8.21257e-14 -500)
(1.0767e-13 -9.14196e-15 -500)
(-3.21493e-14 1.03239e-15 -500)
(-1.57246e-13 2.1549e-14 -500)
(1.13204e-13 5.73608e-14 -500)
(3.98488e-17 -5.32554e-14 -500)
(-2.83932e-17 4.04228e-15 -500)
(4.28762e-17 -3.35881e-14 -500)
(-3.05156e-15 1.88908e-14 -500)
(-5.61035e-18 6.95397e-14 -500)
(1.42167e-16 1.56555e-14 -500)
(3.99083e-19 1.82569e-14 -500)
(-4.57853e-14 8.90425e-15 -500)
(-8.68594e-15 -5.33249e-14 -500)
(4.47707e-14 -1.79502e-14 -500)
(4.1608e-15 5.03179e-14 -500)
(-1.48179e-20 2.17374e-14 -500)
(3.69217e-15 1.93977e-14 -500)
(1.0019e-15 -9.92617e-14 -500)
(-3.74535e-15 -3.04278e-14 -500)
(-5.46811e-16 4.3634e-14 -500)
(2.55434e-15 3.21487e-14 -500)
(1.04526e-15 -5.18773e-14 -500)
(-1.14174e-13 6.24055e-14 -500)
(1.13109e-13 7.10009e-21 -500)
(3.57278e-17 1.05612e-21 -500)
(4.08639e-22 7.14137e-21 -500)
(-2.16437e-25 8.58799e-21 -500)
(1.19917e-24 3.5958e-21 -500)
(1.12698e-24 6.44e-21 -500)
(-1.49038e-24 1.19014e-21 -500)
(1.93975e-19 4.34389e-22 -500)
(1.6519e-14 7.01893e-24 -500)
(-5.33747e-14 -2.4319e-14 -500)
(-9.08791e-15 -1.35685e-14 -500)
(4.85459e-14 -2.68621e-20 -500)
(1.18729e-21 1.07029e-21 -500)
(4.74132e-25 4.00658e-21 -500)
(-4.75626e-26 -1.17633e-15 -500)
(3.78332e-25 4.25173e-21 -500)
(1.18277e-24 5.38974e-21 -500)
(-4.08768e-22 5.78909e-21 -500)
(1.04525e-15 1.62203e-21 -500)
(-1.14198e-13 6.82449e-21 -500)
(1.13109e-13 5.53761e-23 -500)
(3.57278e-17 6.73735e-24 -500)
(4.09263e-22 2.85415e-23 -500)
(8.94918e-26 2.45779e-23 -500)
(1.06701e-29 3.00811e-23 -500)
(-3.32321e-30 3.04264e-24 -500)
(-2.85206e-25 1.06876e-23 -500)
(9.48831e-17 1.62301e-23 -500)
(-7.14411e-14 -6.90094e-16 -500)
(-2.33105e-14 -4.51303e-14 -500)
(7.85857e-14 2.12753e-14 -500)
(1.3407e-14 3.80842e-22 -500)
(2.23812e-23 1.842e-23 -500)
(1.06551e-24 2.84759e-23 -500)
(5.80267e-30 2.01696e-23 -500)
(-1.5319e-30 2.69619e-23 -500)
(-8.94665e-26 2.17847e-23 -500)
(-4.09263e-22 3.28096e-24 -500)
(1.04525e-15 6.59892e-24 -500)
(-1.14198e-13 5.09645e-23 -500)
(1.13109e-13 2.68127e-28 -500)
(3.57278e-17 -3.90296e-29 -500)
(4.09263e-22 1.74323e-28 -500)
(8.94869e-26 2.00613e-28 -500)
(1.61503e-30 2.25869e-29 -500)
(-5.11731e-30 1.22242e-28 -500)
(-8.61459e-25 -8.67458e-29 -500)
(1.93414e-19 -1.62078e-23 -500)
(-2.71263e-14 1.40967e-16 -500)
(-2.70942e-14 7.48151e-14 -500)
(3.46829e-14 4.8808e-14 -500)
(1.99593e-14 1.55667e-15 -500)
(3.23412e-22 1.44989e-23 -500)
(1.34405e-24 5.02316e-29 -500)
(8.37457e-31 -1.59133e-28 -500)
(-1.60097e-30 5.46868e-29 -500)
(-8.94669e-26 4.32071e-29 -500)
(-4.09263e-22 9.72091e-29 -500)
(1.04525e-15 -5.05327e-30 -500)
(-1.14198e-13 1.85064e-28 -500)
(1.13109e-13 -1.38261e-29 -500)
(3.57278e-17 -2.90512e-30 -500)
(4.09263e-22 -1.08501e-28 -500)
(8.94869e-26 -1.08587e-28 -500)
(1.60856e-30 -1.08403e-28 -500)
(-5.13151e-30 -1.08977e-28 -500)
(-1.04287e-24 -1.05402e-28 -500)
(-1.01525e-21 6.8273e-24 -500)
(-6.01262e-15 5.13922e-18 -500)
(3.06985e-14 2.04062e-14 -500)
(8.41157e-15 8.34154e-14 -500)
(-3.45275e-14 2.01007e-15 -500)
(1.21552e-23 9.79107e-24 -500)
(4.3355e-25 -8.68496e-29 -500)
(6.52302e-32 -1.08597e-28 -500)
(-1.60545e-30 -1.08516e-28 -500)
(-8.94669e-26 -1.0864e-28 -500)
(-4.09263e-22 -1.09087e-28 -500)
(1.04525e-15 -2.8995e-30 -500)
(-1.14198e-13 -1.38888e-29 -500)
(1.13109e-13 -1.71299e-23 -500)
(3.57278e-17 -1.764e-24 -500)
(4.09263e-22 -1.76538e-24 -500)
(8.94869e-26 -1.76538e-24 -500)
(1.61083e-30 -1.76538e-24 -500)
(-5.05204e-30 -1.76538e-24 -500)
(-2.9745e-25 -1.76536e-24 -500)
(-9.86208e-22 1.13994e-23 -500)
(-7.03932e-15 8.49168e-21 -500)
(5.31096e-14 -1.4846e-15 -500)
(1.10342e-14 -3.34984e-14 -500)
(-5.86684e-14 -1.8344e-19 -500)
(-7.11494e-17 -3.44109e-23 -500)
(1.05366e-24 -1.76539e-24 -500)
(1.52682e-31 -1.76538e-24 -500)
(-1.60412e-30 -1.76538e-24 -500)
(-8.94669e-26 -1.76538e-24 -500)
(-4.09263e-22 -1.76538e-24 -500)
(1.04525e-15 -1.764e-24 -500)
(-1.14198e-13 -1.71299e-23 -500)
(1.13109e-13 -3.64144e-22 -500)
(3.57278e-17 -1.22453e-22 -500)
(4.08764e-22 -2.97077e-21 -500)
(8.94868e-26 -2.97077e-21 -500)
(1.60802e-30 -2.97077e-21 -500)
(-2.89862e-30 -2.97077e-21 -500)
(-4.90376e-25 -2.97077e-21 -500)
(-9.72972e-22 -2.96846e-21 -500)
(5.33683e-15 -1.56904e-19 -500)
(-9.53187e-15 2.18096e-14 -500)
(7.88357e-15 -6.67041e-14 -500)
(-4.77818e-15 -1.37918e-15 -500)
(3.07803e-23 -2.95891e-21 -500)
(1.54093e-24 -2.97077e-21 -500)
(2.63022e-31 -2.97077e-21 -500)
(-1.59916e-30 -2.97077e-21 -500)
(-8.94669e-26 -2.97077e-21 -500)
(-4.08764e-22 -2.97077e-21 -500)
(1.04525e-15 -1.22453e-22 -500)
(-1.14198e-13 -3.64144e-22 -500)
(1.13109e-13 -2.72909e-15 -500)
(3.56844e-17 1.04526e-15 -500)
(4.63007e-24 1.04525e-15 -500)
(8.95609e-26 1.04525e-15 -500)
(1.27415e-32 1.04525e-15 -500)
(-2.84272e-30 1.04525e-15 -500)
(-1.09825e-24 1.04525e-15 -500)
(-7.2486e-22 1.04525e-15 -500)
(1.50039e-14 1.04574e-15 -500)
(-1.6059e-14 -6.2263e-14 -500)
(-1.13764e-14 -3.72897e-15 -500)
(1.48715e-14 1.04526e-15 -500)
(6.88235e-22 1.04525e-15 -500)
(9.33137e-25 1.04525e-15 -500)
(2.99084e-30 1.04525e-15 -500)
(-1.04502e-32 1.04525e-15 -500)
(-8.95607e-26 1.04525e-15 -500)
(-4.63015e-24 1.04525e-15 -500)
(1.04529e-15 1.04526e-15 -500)
(-1.14198e-13 -2.72909e-15 -500)
(1.1134e-13 -1.12429e-13 -500)
(3.81006e-15 -1.14198e-13 -500)
(6.49561e-23 -1.14198e-13 -500)
(7.22908e-25 -1.14198e-13 -500)
(8.72891e-31 -1.14198e-13 -500)
(-7.59181e-32 -1.14198e-13 -500)
(-7.18063e-25 -1.14198e-13 -500)
(3.81879e-16 -1.14198e-13 -500)
(-7.79369e-14 -1.14198e-13 -500)
(2.48493e-15 -1.44334e-13 -500)
(7.79716e-14 -1.02224e-13 -500)
(-6.26042e-15 -1.14198e-13 -500)
(2.24626e-22 -1.14198e-13 -500)
(6.24751e-25 -1.14198e-13 -500)
(2.18102e-30 -1.14198e-13 -500)
(-8.38955e-31 -1.14198e-13 -500)
(-7.22906e-25 -1.14198e-13 -500)
(-6.49563e-23 -1.14198e-13 -500)
(-2.72908e-15 -1.14198e-13 -500)
(-1.12429e-13 -1.12429e-13 -500)
(1.00193e-13 1.00193e-13 -500)
(-7.71133e-17 9.98674e-14 -500)
(5.56725e-22 9.98674e-14 -500)
(2.45224e-25 9.98674e-14 -500)
(8.26048e-30 9.98674e-14 -500)
(-2.07592e-29 9.98674e-14 -500)
(-3.12879e-25 9.98674e-14 -500)
(9.491e-17 9.98438e-14 -500)
(-3.99687e-14 9.60628e-14 -500)
(-4.74657e-14 -3.78463e-15 -500)
(4.3393e-14 1.02733e-13 -500)
(4.29174e-14 9.91044e-14 -500)
(1.34106e-20 9.98674e-14 -500)
(7.14803e-25 9.98674e-14 -500)
(6.28614e-29 9.98674e-14 -500)
(-8.2523e-30 9.98674e-14 -500)
(-2.45208e-25 9.98674e-14 -500)
(-5.56725e-22 9.98674e-14 -500)
(1.72192e-16 9.98674e-14 -500)
(-1.00264e-13 1.00193e-13 -500)
(9.98675e-14 -7.73651e-17 -500)
(2.42262e-16 2.42234e-16 -500)
(5.33756e-24 2.42267e-16 -500)
(2.01153e-25 2.42267e-16 -500)
(2.06554e-32 2.42267e-16 -500)
(-3.83293e-29 2.42267e-16 -500)
(-1.70723e-24 2.42267e-16 -500)
(4.35304e-16 2.42267e-16 -500)
(-1.22992e-13 9.52749e-16 -500)
(-8.82755e-15 4.96197e-14 -500)
(1.18626e-13 3.74183e-14 -500)
(2.84865e-15 1.85102e-15 -500)
(1.90503e-24 2.42267e-16 -500)
(-8.92444e-26 2.42267e-16 -500)
(-2.64696e-32 2.42267e-16 -500)
(-1.73558e-32 2.42267e-16 -500)
(-2.01153e-25 2.42267e-16 -500)
(-5.33777e-24 2.42267e-16 -500)
(-1.47184e-16 2.42234e-16 -500)
(-9.99385e-14 -7.73651e-17 -500)
(9.98675e-14 5.08556e-22 -500)
(2.42266e-16 1.29237e-22 -500)
(4.51817e-21 3.29284e-20 -500)
(2.01596e-25 3.29284e-20 -500)
(1.78398e-29 3.29284e-20 -500)
(-5.26073e-29 3.29284e-20 -500)
(-1.39316e-24 3.29284e-20 -500)
(1.81896e-19 3.2997e-20 -500)
(1.63682e-14 2.55802e-15 -500)
(6.59482e-15 6.46591e-14 -500)
(-1.27573e-14 3.46304e-14 -500)
(-6.04332e-15 3.28761e-20 -500)
(5.48549e-22 3.29282e-20 -500)
(-4.62392e-25 3.29284e-20 -500)
(8.14265e-30 3.29284e-20 -500)
(-1.78345e-29 3.29284e-20 -500)
(-2.01376e-25 3.29284e-20 -500)
(-4.51817e-21 3.29284e-20 -500)
(-1.47188e-16 1.29239e-22 -500)
(-9.99385e-14 5.08556e-22 -500)
(9.98675e-14 -3.85671e-24 -500)
(2.42266e-16 9.4153e-24 -500)
(4.51817e-21 9.43359e-24 -500)
(2.01596e-25 9.43359e-24 -500)
(1.78447e-29 9.43359e-24 -500)
(-1.2473e-29 9.43359e-24 -500)
(1.75118e-25 9.43383e-24 -500)
(-8.67809e-22 3.22434e-23 -500)
(-5.48265e-14 -2.01637e-15 -500)
(1.73725e-14 -9.09557e-14 -500)
(5.82669e-14 -8.95839e-14 -500)
(-2.72833e-14 -1.93367e-15 -500)
(5.61616e-22 -6.82647e-24 -500)
(2.68426e-25 9.43362e-24 -500)
(8.24408e-30 9.43359e-24 -500)
(-1.78328e-29 9.43359e-24 -500)
(-2.01376e-25 9.43359e-24 -500)
(-4.51817e-21 9.43359e-24 -500)
(-1.47188e-16 9.4153e-24 -500)
(-9.99385e-14 -3.85671e-24 -500)
(9.98675e-14 3.76155e-29 -500)
(2.42266e-16 5.7745e-30 -500)
(4.51817e-21 1.22697e-27 -500)
(2.01596e-25 1.22657e-27 -500)
(1.7844e-29 1.22678e-27 -500)
(-3.0325e-29 1.22692e-27 -500)
(-2.79668e-25 5.12409e-28 -500)
(9.48745e-17 -5.86222e-23 -500)
(-7.86885e-14 2.60481e-19 -500)
(-8.0566e-14 1.99546e-14 -500)
(8.0442e-14 -4.50155e-14 -500)
(7.92012e-14 -1.26686e-15 -500)
(-3.2179e-24 -8.63825e-24 -500)
(-2.74674e-25 1.14955e-27 -500)
(-5.59966e-32 1.22648e-27 -500)
(-1.78352e-29 1.22611e-27 -500)
(-2.01376e-25 1.22721e-27 -500)
(-4.51817e-21 1.22661e-27 -500)
(-1.47188e-16 5.19789e-30 -500)
(-9.99385e-14 3.76196e-29 -500)
(9.98675e-14 -1.80393e-27 -500)
(2.42266e-16 -1.60863e-28 -500)
(4.51817e-21 -1.13198e-27 -500)
(2.01596e-25 -1.85755e-27 -500)
(1.78479e-29 -1.58409e-27 -500)
(-4.78498e-29 -1.00605e-27 -500)
(-1.10925e-24 -1.28773e-27 -500)
(-1.24343e-20 1.06673e-23 -500)
(-2.64051e-14 1.42188e-16 -500)
(-3.74885e-14 3.58959e-14 -500)
(3.48507e-14 5.17814e-14 -500)
(3.10561e-14 1.57547e-15 -500)
(1.6161e-21 -4.56141e-23 -500)
(8.73591e-25 -2.95913e-27 -500)
(2.08562e-29 -1.97217e-27 -500)
(-1.78283e-29 -2.12764e-27 -500)
(-2.01376e-25 -2.191e-28 -500)
(-4.51817e-21 -1.39276e-27 -500)
(-1.47188e-16 -5.19493e-28 -500)
(-9.99385e-14 -1.80355e-27 -500)
(9.98675e-14 -3.42688e-23 -500)
(2.42266e-16 -9.39759e-24 -500)
(4.51817e-21 -1.23431e-23 -500)
(2.01571e-25 -2.48216e-23 -500)
(4.91584e-29 -1.90359e-23 -500)
(-4.43748e-29 -6.25944e-24 -500)
(-4.50118e-25 -2.28194e-23 -500)
(-7.07062e-21 3.03466e-23 -500)
(-4.95347e-14 -6.86085e-19 -500)
(-2.72951e-14 -2.86212e-14 -500)
(5.54453e-14 -5.29821e-14 -500)
(1.83356e-14 -1.69986e-15 -500)
(1.30033e-20 -7.7389e-24 -500)
(1.97098e-24 -5.51813e-23 -500)
(5.63615e-29 -2.93838e-23 -500)
(-2.90114e-30 -5.47347e-23 -500)
(-2.01376e-25 4.49426e-24 -500)
(-4.51817e-21 -2.51502e-23 -500)
(-1.47188e-16 -3.3468e-23 -500)
(-9.99385e-14 -3.4276e-23 -500)
(9.98675e-14 1.48262e-19 -500)
(2.42272e-16 9.48789e-17 -500)
(7.55153e-21 1.62311e-19 -500)
(-1.52193e-22 -3.85774e-20 -500)
(6.80819e-20 9.48371e-17 -500)
(-1.06046e-20 -1.78486e-20 -500)
(-5.37354e-25 9.48549e-17 -500)
(9.84965e-20 9.48596e-17 -500)
(-5.30405e-14 1.38763e-15 -500)
(-8.60284e-14 6.61322e-14 -500)
(5.61192e-14 -1.74168e-14 -500)
(8.53415e-14 3.83384e-16 -500)
(3.84268e-21 4.88872e-22 -500)
(-1.03829e-19 9.50191e-17 -500)
(5.32189e-21 -5.30048e-20 -500)
(2.28444e-20 1.35517e-19 -500)
(4.10594e-21 4.76154e-17 -500)
(-7.2787e-21 -2.80752e-20 -500)
(-1.47188e-16 -8.9925e-21 -500)
(-9.99385e-14 -4.63213e-20 -500)
(9.82356e-14 -4.03372e-14 -500)
(-4.21815e-16 -7.26937e-14 -500)
(8.09278e-16 -5.82477e-14 -500)
(-2.88933e-16 -2.39028e-14 -500)
(6.06963e-16 -6.39117e-14 -500)
(-2.48466e-16 -1.70408e-14 -500)
(-1.30823e-15 -7.80073e-14 -500)
(3.11641e-16 -6.09992e-14 -500)
(1.30857e-14 -6.00686e-14 -500)
(-4.23696e-14 2.89884e-14 -500)
(-1.13115e-14 3.88914e-14 -500)
(4.36404e-14 -6.2621e-14 -500)
(-9.2059e-17 -2.11651e-14 -500)
(-1.13982e-15 -7.14325e-14 -500)
(6.75833e-16 -4.69373e-14 -500)
(-3.26755e-16 -5.52661e-14 -500)
(5.82795e-16 -5.99465e-14 -500)
(-1.226e-16 -3.10478e-14 -500)
(-1.41606e-16 -5.66764e-14 -500)
(-9.84238e-14 -4.03332e-14 -500)
(4.12705e-14 -5.23084e-14 -500)
(-2.07052e-14 -3.1413e-14 -500)
(4.05741e-14 -8.75597e-14 -500)
(-7.3713e-15 -1.10809e-13 -500)
(1.88015e-14 -2.79278e-16 -500)
(-1.86696e-14 -7.32365e-14 -500)
(-3.78794e-14 -4.09006e-14 -500)
(4.46512e-15 -5.35435e-14 -500)
(4.25194e-14 -6.56245e-14 -500)
(2.23802e-14 2.2029e-14 -500)
(-4.06961e-14 2.26079e-14 -500)
(1.54763e-14 -6.80558e-14 -500)
(-3.16395e-15 2.28586e-14 -500)
(-3.15277e-14 -3.70799e-14 -500)
(2.70052e-14 -2.46063e-14 -500)
(-2.36443e-14 -2.1274e-14 -500)
(2.54469e-14 -4.49992e-14 -500)
(5.45807e-15 -4.28826e-14 -500)
(-5.95152e-16 -1.29601e-14 -500)
(-5.4422e-14 -4.20838e-14 -500)
(7.61568e-14 4.78342e-14 -500)
(-3.1314e-14 7.61747e-14 -500)
(-7.13728e-14 6.62225e-14 -500)
(7.70798e-14 3.97525e-14 -500)
(3.61276e-14 6.60683e-14 -500)
(-4.32822e-14 2.51811e-14 -500)
(1.32616e-14 8.42894e-14 -500)
(-1.13914e-14 6.17571e-14 -500)
(8.14774e-14 6.90319e-14 -500)
(3.63827e-14 -3.34608e-15 -500)
(-1.04714e-13 -1.20538e-14 -500)
(4.98186e-14 6.76127e-14 -500)
(2.5539e-14 2.37721e-14 -500)
(-4.05164e-14 7.49091e-14 -500)
(1.31777e-14 5.1018e-14 -500)
(-1.71557e-14 5.91033e-14 -500)
(-2.49245e-14 6.38743e-14 -500)
(4.14889e-14 3.49626e-14 -500)
(4.31597e-15 5.94905e-14 -500)
(-1.04241e-13 4.90652e-14 -500)
(9.82886e-14 4.55963e-14 -500)
(9.76914e-16 2.60766e-14 -500)
(-1.62922e-15 8.13489e-14 -500)
(2.34106e-15 1.02368e-13 -500)
(2.36905e-17 -1.30796e-14 -500)
(-8.57797e-16 6.74533e-14 -500)
(1.63158e-20 3.28047e-14 -500)
(3.46834e-17 4.84506e-14 -500)
(-2.87659e-14 5.83722e-14 -500)
(-4.44729e-14 -1.13155e-13 -500)
(3.33351e-14 -4.79691e-14 -500)
(4.23339e-14 6.25916e-14 -500)
(-8.4011e-19 -2.60866e-14 -500)
(-5.22842e-16 3.41976e-14 -500)
(3.10074e-18 2.28989e-14 -500)
(-1.92714e-24 1.92042e-14 -500)
(-1.50823e-17 4.32252e-14 -500)
(1.42154e-16 3.80159e-14 -500)
(-1.47189e-16 1.03324e-14 -500)
(-9.97238e-14 3.4893e-14 -500)
(9.98675e-14 6.95903e-20 -500)
(2.42266e-16 4.08634e-21 -500)
(4.51701e-21 4.13284e-20 -500)
(3.55888e-24 5.88796e-20 -500)
(4.82114e-25 -3.33922e-22 -500)
(-1.11668e-24 4.33887e-20 -500)
(-1.33635e-24 4.28518e-21 -500)
(9.48705e-17 1.39812e-22 -500)
(-7.11481e-14 -2.89034e-19 -500)
(-7.90785e-14 1.73568e-14 -500)
(7.03147e-14 8.06803e-15 -500)
(7.74906e-14 -5.8124e-19 -500)
(1.30035e-20 7.64374e-21 -500)
(2.27512e-24 4.29852e-21 -500)
(-1.38967e-24 -7.50565e-23 -500)
(5.74005e-26 1.40666e-20 -500)
(4.56251e-26 2.26921e-20 -500)
(-4.51977e-21 3.5781e-20 -500)
(-1.47188e-16 1.01034e-20 -500)
(-9.99385e-14 2.9768e-20 -500)
(9.98675e-14 3.31179e-23 -500)
(2.42266e-16 1.25522e-23 -500)
(4.51817e-21 4.45262e-23 -500)
(2.01653e-25 3.94358e-23 -500)
(2.61556e-29 -2.43501e-23 -500)
(-3.8964e-29 2.32086e-23 -500)
(-1.55036e-25 1.28946e-24 -500)
(-4.59542e-21 2.90172e-23 -500)
(-1.40325e-14 1.85621e-21 -500)
(-4.11379e-14 -1.62001e-14 -500)
(1.88957e-14 -3.30604e-15 -500)
(3.64709e-14 4.50784e-20 -500)
(-3.43719e-24 3.52284e-23 -500)
(-1.98371e-25 -4.0672e-25 -500)
(-2.75123e-29 -6.91311e-24 -500)
(-1.78215e-29 1.7635e-23 -500)
(-2.01373e-25 4.3313e-24 -500)
(-4.51817e-21 2.8986e-23 -500)
(-1.47188e-16 1.03291e-23 -500)
(-9.99385e-14 2.17513e-23 -500)
(9.98675e-14 2.43351e-27 -500)
(2.42266e-16 2.43029e-28 -500)
(4.51817e-21 1.79308e-27 -500)
(2.01596e-25 2.12304e-27 -500)
(1.78417e-29 -1.46627e-29 -500)
(-5.61391e-29 1.82208e-27 -500)
(-1.6455e-24 -2.57998e-28 -500)
(9.48705e-17 -4.65828e-23 -500)
(-8.8634e-14 -2.28675e-16 -500)
(-8.26773e-14 -4.65677e-14 -500)
(9.33403e-14 -3.3263e-14 -500)
(7.68108e-14 2.38666e-17 -500)
(3.26469e-21 -6.08186e-24 -500)
(3.68459e-26 2.73026e-28 -500)
(6.98543e-30 -3.03663e-30 -500)
(-1.7834e-29 8.60596e-28 -500)
(-2.01376e-25 3.26449e-28 -500)
(-4.51817e-21 1.55335e-27 -500)
(-1.47188e-16 6.19746e-28 -500)
(-9.99385e-14 1.47731e-27 -500)
(9.98675e-14 -3.79518e-29 -500)
(2.42266e-16 -4.95281e-30 -500)
(4.51817e-21 -1.22542e-27 -500)
(2.01596e-25 -1.22566e-27 -500)
(1.78391e-29 -1.22696e-27 -500)
(-5.61284e-29 -1.22591e-27 -500)
(-1.68605e-24 -1.22636e-27 -500)
(1.81596e-19 5.06984e-25 -500)
(-5.20921e-14 8.28186e-16 -500)
(-8.66378e-14 4.74386e-14 -500)
(6.20585e-14 2.91113e-14 -500)
(8.0406e-14 -8.88006e-21 -500)
(-1.03828e-24 2.70986e-24 -500)
(-2.13324e-25 -1.02686e-27 -500)
(-4.10267e-32 -1.22657e-27 -500)
(-1.78349e-29 -1.22601e-27 -500)
(-2.01376e-25 -1.22646e-27 -500)
(-4.51817e-21 -1.22582e-27 -500)
(-1.47188e-16 -4.90429e-30 -500)
(-9.99385e-14 -3.8172e-29 -500)
(9.98675e-14 3.85672e-24 -500)
(2.42266e-16 -9.41529e-24 -500)
(4.51817e-21 -9.43114e-24 -500)
(2.01596e-25 -9.43114e-24 -500)
(1.78384e-29 -9.43114e-24 -500)
(-5.61457e-29 -9.43114e-24 -500)
(-1.72269e-24 -9.43097e-24 -500)
(1.42603e-20 4.4188e-23 -500)
(-4.60568e-14 3.48279e-20 -500)
(-4.84546e-14 4.67386e-14 -500)
(4.51953e-14 2.4716e-14 -500)
(4.66231e-14 -2.08657e-17 -500)
(-2.64472e-24 -1.9388e-23 -500)
(-3.3022e-25 -9.43115e-24 -500)
(-6.0552e-32 -9.43114e-24 -500)
(-1.78354e-29 -9.43114e-24 -500)
(-2.01376e-25 -9.43114e-24 -500)
(-4.51817e-21 -9.43114e-24 -500)
(-1.47188e-16 -9.41529e-24 -500)
(-9.99385e-14 3.85672e-24 -500)
(9.98675e-14 -5.08563e-22 -500)
(2.42266e-16 -1.29239e-22 -500)
(4.51241e-21 -3.29284e-20 -500)
(2.01596e-25 -3.29284e-20 -500)
(1.78202e-29 -3.29284e-20 -500)
(-3.18302e-29 -3.29284e-20 -500)
(-5.72407e-25 -3.29284e-20 -500)
(-1.07301e-20 -3.29432e-20 -500)
(-4.13626e-15 -1.74029e-17 -500)
(-5.73543e-14 1.74485e-14 -500)
(1.66642e-14 4.95224e-14 -500)
(4.93619e-14 4.34435e-16 -500)
(2.1638e-23 -3.29574e-20 -500)
(6.21496e-25 -3.29284e-20 -500)
(1.50335e-31 -3.29284e-20 -500)
(-1.78092e-29 -3.29284e-20 -500)
(-2.01376e-25 -3.29284e-20 -500)
(-4.51241e-21 -3.29284e-20 -500)
(-1.47188e-16 -1.29242e-22 -500)
(-9.99385e-14 -5.08563e-22 -500)
(9.98675e-14 1.72443e-16 -500)
(2.41586e-16 -1.47156e-16 -500)
(7.24823e-24 -1.47188e-16 -500)
(2.01455e-25 -1.47188e-16 -500)
(4.93467e-32 -1.47188e-16 -500)
(-2.9996e-29 -1.47188e-16 -500)
(-1.44695e-24 -1.47188e-16 -500)
(-7.9047e-21 -1.47188e-16 -500)
(-3.68163e-14 -1.10439e-16 -500)
(-5.55136e-15 -3.76952e-15 -500)
(3.76243e-14 8.7974e-15 -500)
(5.78767e-16 -1.45632e-16 -500)
(7.46903e-21 -1.47188e-16 -500)
(1.23194e-24 -1.47188e-16 -500)
(3.17834e-29 -1.47188e-16 -500)
(-3.87961e-32 -1.47188e-16 -500)
(-2.01455e-25 -1.47188e-16 -500)
(-7.24843e-24 -1.47188e-16 -500)
(-1.46507e-16 -1.47156e-16 -500)
(-9.99385e-14 1.72443e-16 -500)
(1.00193e-13 -1.00264e-13 -500)
(-7.7385e-17 -9.99385e-14 -500)
(5.57885e-22 -9.99385e-14 -500)
(2.4547e-25 -9.99385e-14 -500)
(8.27746e-30 -9.99385e-14 -500)
(-1.14272e-32 -9.99385e-14 -500)
(-1.17051e-25 -9.99385e-14 -500)
(-1.37781e-24 -9.99385e-14 -500)
(-1.02943e-14 -9.99384e-14 -500)
(-3.67759e-14 -9.2212e-14 -500)
(1.35576e-14 -1.09454e-13 -500)
(3.69376e-14 -9.99384e-14 -500)
(2.30887e-21 -9.99385e-14 -500)
(4.87431e-25 -9.99385e-14 -500)
(2.33772e-29 -9.99385e-14 -500)
(-8.26856e-30 -9.99385e-14 -500)
(-2.45454e-25 -9.99385e-14 -500)
(-5.57884e-22 -9.99385e-14 -500)
(1.72463e-16 -9.99385e-14 -500)
(-1.00264e-13 -1.00264e-13 -500)
(1.00633e-13 1.00633e-13 -500)
(-7.71189e-17 1.00515e-13 -500)
(7.76751e-25 1.00515e-13 -500)
(2.45087e-25 1.00515e-13 -500)
(7.55629e-32 1.00515e-13 -500)
(-5.43733e-32 1.00515e-13 -500)
(-6.03182e-25 1.00515e-13 -500)
(2.87112e-18 1.00515e-13 -500)
(6.39677e-14 1.00054e-13 -500)
(-4.78308e-14 4.69901e-14 -500)
(-5.63659e-14 5.09168e-14 -500)
(4.6216e-14 9.80906e-14 -500)
(3.47303e-24 1.00515e-13 -500)
(1.25147e-25 1.00515e-13 -500)
(1.40625e-32 1.00515e-13 -500)
(-6.86123e-32 1.00515e-13 -500)
(-2.45087e-25 1.00515e-13 -500)
(-7.7675e-25 1.00515e-13 -500)
(1.72197e-16 1.00515e-13 -500)
(-1.00727e-13 1.00633e-13 -500)
(1.00515e-13 -7.73903e-17 -500)
(2.42266e-16 2.42275e-16 -500)
(5.33754e-24 2.42275e-16 -500)
(2.01163e-25 2.42275e-16 -500)
(2.71157e-32 2.42275e-16 -500)
(-1.20097e-32 2.42275e-16 -500)
(-2.89129e-25 2.42275e-16 -500)
(2.63897e-16 2.42275e-16 -500)
(-1.08133e-13 -3.09684e-15 -500)
(-5.29512e-14 -1.42218e-13 -500)
(1.15583e-13 -1.90098e-14 -500)
(4.12962e-14 1.01004e-15 -500)
(2.76383e-23 2.42275e-16 -500)
(1.36462e-24 2.42275e-16 -500)
(2.15869e-31 2.42275e-16 -500)
(-1.20062e-32 2.42275e-16 -500)
(-2.01162e-25 2.42275e-16 -500)
(-5.33754e-24 2.42275e-16 -500)
(-1.47188e-16 2.42275e-16 -500)
(-1.0061e-13 -7.73903e-17 -500)
(1.00515e-13 -4.85728e-23 -500)
(2.42266e-16 1.29243e-22 -500)
(5.33779e-24 1.29253e-22 -500)
(2.01163e-25 1.29253e-22 -500)
(2.26942e-32 1.29253e-22 -500)
(-1.53122e-31 1.29253e-22 -500)
(-1.4002e-24 1.29253e-22 -500)
(9.48835e-17 1.57441e-22 -500)
(-8.83847e-14 6.97626e-16 -500)
(-6.70034e-14 5.49354e-14 -500)
(9.04783e-14 1.67981e-15 -500)
(6.22269e-14 3.29047e-22 -500)
(1.29589e-23 1.40092e-22 -500)
(5.60065e-25 1.29253e-22 -500)
(1.02722e-31 1.29253e-22 -500)
(-1.3852e-32 1.29253e-22 -500)
(-2.01162e-25 1.29253e-22 -500)
(-5.33779e-24 1.29253e-22 -500)
(-1.47188e-16 1.29243e-22 -500)
(-1.0061e-13 -4.85728e-23 -500)
(1.00515e-13 -3.85827e-24 -500)
(2.42266e-16 9.41674e-24 -500)
(5.33779e-24 9.41674e-24 -500)
(2.01163e-25 9.41675e-24 -500)
(2.62891e-32 9.41675e-24 -500)
(-2.20547e-32 9.41675e-24 -500)
(-2.23815e-25 9.41675e-24 -500)
(1.94592e-19 2.14873e-23 -500)
(-4.60454e-14 1.50873e-15 -500)
(-4.87541e-14 6.81438e-14 -500)
(5.02586e-14 3.24433e-14 -500)
(4.49768e-14 5.45453e-17 -500)
(1.69627e-23 2.02638e-23 -500)
(8.60321e-25 9.41675e-24 -500)
(1.27494e-31 9.41675e-24 -500)
(-1.39112e-32 9.41675e-24 -500)
(-2.01162e-25 9.41675e-24 -500)
(-5.33779e-24 9.41674e-24 -500)
(-1.47188e-16 9.41674e-24 -500)
(-1.0061e-13 -3.85827e-24 -500)
(1.00515e-13 -3.14809e-30 -500)
(2.42266e-16 5.33151e-30 -500)
(5.33779e-24 5.27251e-30 -500)
(2.01163e-25 6.10502e-30 -500)
(2.32484e-32 6.35295e-30 -500)
(-1.33375e-31 6.11643e-30 -500)
(-1.28152e-24 -2.45626e-30 -500)
(5.13135e-22 -2.82848e-23 -500)
(-1.3502e-14 2.13368e-16 -500)
(-3.86869e-14 3.80356e-14 -500)
(2.12718e-14 2.21571e-14 -500)
(3.32727e-14 4.48655e-18 -500)
(3.21167e-24 1.0364e-23 -500)
(-3.42297e-26 9.30807e-30 -500)
(-6.66812e-33 5.76008e-30 -500)
(-1.63961e-32 5.23417e-30 -500)
(-2.01162e-25 5.85307e-30 -500)
(-5.33779e-24 5.63708e-30 -500)
(-1.47188e-16 4.7991e-30 -500)
(-1.0061e-13 -3.08605e-30 -500)
(1.00515e-13 -2.17557e-29 -500)
(2.42266e-16 -1.8354e-29 -500)
(5.33779e-24 -1.98422e-29 -500)
(2.01163e-25 2.40057e-30 -500)
(2.1784e-32 9.59681e-30 -500)
(-1.84177e-31 4.98023e-30 -500)
(-1.3916e-24 -4.35185e-30 -500)
(-2.46078e-23 3.41341e-23 -500)
(-9.73123e-15 -3.39118e-19 -500)
(-4.1412e-14 -6.02704e-15 -500)
(1.80902e-14 -5.04589e-14 -500)
(3.37193e-14 -7.98401e-16 -500)
(1.09297e-23 -5.15022e-23 -500)
(3.98844e-25 -3.59609e-29 -500)
(5.13143e-32 -8.53018e-30 -500)
(-1.38207e-32 -2.09817e-29 -500)