/*--------------------------------*- C++ -*----------------------------------*\
| =========                 |                                                 |
| \\      /  F ield         | OpenFOAM: The Open Source CFD Toolbox           |
|  \\    /   O peration     | Version:  2412                                  |
|   \\  /    A nd           | Website:  www.openfoam.com                      |
|    \\/     M anipulation  |                                                 |
\*---------------------------------------------------------------------------*/
FoamFile
{
    version     2.0;
    format      ascii;
    arch        "LSB;label=32;scalar=64";
    class       volScalarField;
    location    "0";
    object      p;
}
// * * * * * * * * * * * * * * * * * * * * * * * * * * * * * * * * * * * * * //

dimensions      [0 2 -2 0 0 0 0];

internalField   nonuniform List<scalar> 
54102
(
-2.49911
-2.44866
-2.35079
-2.20987
-2.03232
-1.82665
-1.60313
-1.37341
-1.14981
-0.944469
-0.768614
-0.631421
-0.539505
-0.496014
-0.501105
-0.551625
-0.641732
-0.761192
-0.899666
-1.04565
-1.18759
-1.31487
-1.41845
-1.4913
-1.52874
-2.44762
-2.39522
-2.29337
-2.14662
-1.96172
-1.74758
-1.51503
-1.27631
-1.04434
-0.831699
-0.650146
-0.508998
-0.414896
-0.371304
-0.378375
-0.432812
-0.528507
-0.655484
-0.80255
-0.957467
-1.108
-1.2429
-1.35262
-1.42978
-1.46945
-2.34772
-2.29135
-2.18161
-2.02344
-1.82418
-1.5936
-1.34364
-1.0878
-0.840284
-0.61416
-0.422207
-0.273888
-0.17574
-0.131634
-0.141804
-0.203005
-0.309329
-0.450251
-0.613533
-0.785577
-0.952734
-1.10247
-1.22421
-1.30979
-1.3538
-2.20384
-2.14167
-2.02053
-1.84592
-1.62614
-1.37232
-1.09815
-0.819077
-0.55146
-0.308501
-0.103433
0.0538734
0.156943
0.202959
0.190694
0.121911
0.00216222
-0.15696
-0.342239
-0.538134
-0.728827
-0.899801
-1.03884
-1.1366
-1.18688
-2.02248
-1.953
-1.81756
-1.6225
-1.37744
-1.0955
-0.793024
-0.488009
-0.199552
0.0586647
0.274772
0.439971
0.548466
0.599296
0.588963
0.515576
0.384259
0.206442
-0.00361813
-0.227693
-0.446997
-0.644249
-0.804947
-0.918048
-0.976268
-1.81215
-1.73427
-1.58253
-1.36443
-1.09141
-0.779228
-0.448392
-0.120109
0.184026
0.449114
0.66567
0.83304
0.949022
1.00954
1.00849
0.93981
0.80571
0.614673
0.381621
0.1286
-0.121721
-0.34837
-0.533759
-0.664547
-0.731961
-1.58313
-1.49627
-1.32735
-1.08551
-0.784703
-0.444277
-0.0905502
0.250499
0.559462
0.821582
1.02897
1.18752
1.30331
1.37519
1.39219
1.34444
1.22583
1.03521
0.787455
0.509501
0.229167
-0.0275808
-0.23903
-0.388788
-0.466124
-1.34705
-1.2512
-1.06536
-0.801035
-0.476111
-0.114813
0.255298
0.602639
0.899214
1.13267
1.30797
1.441
1.5498
1.64183
1.69744
1.69156
1.60492
1.43168
1.18499
0.891445
0.585577
0.30048
0.0634293
-0.105294
-0.19262
-1.11638
-1.01211
-0.810546
-0.525524
-0.178885
0.199457
0.574216
0.907085
1.16597
1.34249
1.45261
1.53181
1.62371
1.74691
1.87082
1.94145
1.91826
1.78504
1.55223
1.25227
0.92685
0.616859
0.356471
0.170387
0.0737912
-0.903634
-0.792496
-0.57782
-0.275467
0.0883595
0.477169
0.84656
1.1498
1.3519
1.44234
1.44922
1.44462
1.5099
1.67588
1.89746
2.08122
2.14951
2.07437
1.86803
1.57116
1.23346
0.904441
0.624787
0.423494
0.318643
-0.719513
-0.602446
-0.377051
-0.0615264
0.314344
0.708192
1.06687
1.33525
1.47138
1.45959
1.34922
1.25104
1.28394
1.49575
1.82275
2.13255
2.3066
2.29869
2.12357
1.83615
1.49218
1.14891
0.853726
0.640012
0.528385
-0.57462
-0.453219
-0.220097
0.104839
0.48932
0.886869
1.23762
1.47784
1.56055
1.4665
1.26276
1.08791
1.09319
1.34235
1.75438
2.16342
2.4233
2.47001
2.31947
2.03888
1.69017
1.33676
1.03053
0.807968
0.691482
-0.474923
-0.351211
-0.113703
0.217236
0.608142
1.01079
1.36281
1.59751
1.66441
1.5438
1.30824
1.10623
1.10173
1.36526
1.80807
2.25157
2.54032
2.60204
2.45752
2.1746
1.81947
1.45867
1.1459
0.918504
0.799448
-0.424761
-0.300865
-0.0622737
0.271247
0.666792
1.0771
1.44251
1.7021
1.80127
1.72263
1.53326
1.36871
1.37861
1.62579
2.02888
2.42411
2.66674
2.69516
2.53308
2.23739
1.87463
1.50987
1.1951
0.967055
0.848066
-0.423197
-0.300902
-0.0650123
0.266337
0.663229
1.08216
1.46925
1.76981
1.93761
1.95557
1.87156
1.79214
1.83352
2.0421
2.35327
2.63831
2.782
2.74149
2.54008
2.22359
1.85382
1.48983
1.17887
0.95467
0.837928
-0.466389
-0.347874
-0.118793
0.204953
0.59752
1.02177
1.43072
1.77446
2.01953
2.15098
2.19303
2.21271
2.28852
2.44986
2.65164
2.80444
2.83507
2.71697
2.46758
2.13115
1.75934
1.40225
1.10102
0.885195
0.773105
-0.549521
-0.437065
-0.218593
0.0925706
0.474748
0.897398
1.31966
1.69595
2.00461
2.22901
2.37921
2.48523
2.58887
2.70694
2.80988
2.8469
2.78236
2.59934
2.30983
1.96263
1.59771
1.25546
0.970124
0.766893
0.661642
-0.663878
-0.558679
-0.353843
-0.0608783
0.302822
0.71278
1.13439
1.52901
1.87885
2.16285
2.38095
2.54193
2.66142
2.74638
2.77989
2.73983
2.61032
2.38403
2.07662
1.73281
1.38418
1.06346
0.798912
0.611551
0.514786
-0.797059
-0.700326
-0.511768
-0.241236
0.0961717
0.479983
0.886572
1.28649
1.65348
1.96666
2.21821
2.40519
2.52963
2.59178
2.58519
2.49999
2.3308
2.08623
1.78633
1.46027
1.13649
0.84278
0.602498
0.433096
0.345807
-0.938099
-0.850242
-0.678815
-0.432154
-0.123018
0.231491
0.611242
0.99232
1.35326
1.67278
1.9353
2.13102
2.25426
2.30318
2.27619
2.17184
1.99218
1.75088
1.46877
1.1687
0.875248
0.611575
0.397082
0.246332
0.16878
-1.07575
-0.996423
-0.841534
-0.618227
-0.337361
-0.0134234
0.336045
0.690894
1.03108
1.33515
1.58614
1.77466
1.89615
1.94309
1.91187
1.8069
1.63423
1.40973
1.15259
0.882828
0.621445
0.387928
0.198584
0.065741
-0.00253265
-1.19951
-1.12775
-0.987598
-0.785326
-0.530416
-0.235492
0.0840293
0.410534
0.72541
1.00926
1.24624
1.42497
1.53968
1.58294
1.5531
1.45586
1.29791
1.09535
0.865287
0.625555
0.394323
0.188289
0.021454
-0.095522
-0.155614
-1.30044
-1.23478
-1.10655
-0.921434
-0.687956
-0.417454
-0.123783
0.177205
0.468524
0.733007
0.955749
1.12426
1.23219
1.27315
1.24701
1.15954
1.01761
0.835705
0.629928
0.416011
0.20994
0.0264215
-0.122173
-0.226366
-0.279883
-1.37158
-1.31019
-1.19033
-1.01728
-0.799
-0.545994
-0.271086
0.0110633
0.284687
0.533939
0.745018
0.905573
1.0085
1.04881
1.02669
0.94719
0.817772
0.651731
0.463894
0.268617
0.080457
-0.0871857
-0.222991
-0.318241
-0.367147
-1.40824
-1.34906
-1.23349
-1.06667
-0.856255
-0.612343
-0.347238
-0.0749847
0.189245
0.429977
0.634594
0.790977
0.891274
0.931658
0.912099
0.836734
0.714023
0.556728
0.378331
0.192746
0.0138555
-0.145598
-0.274815
-0.365449
-0.411939
-2.5975
-2.54739
-2.44995
-2.30934
-2.13177
-1.92551
-1.70069
-1.46893
-1.24268
-1.03439
-0.85568
-0.716171
-0.622846
-0.579086
-0.585024
-0.637266
-0.729554
-0.85135
-0.991924
-1.13952
-1.28251
-1.41033
-1.5141
-1.58697
-1.62441
-2.54635
-2.49412
-2.39236
-2.2454
-2.05974
-1.84406
-1.60902
-1.3669
-1.13086
-0.913879
-0.728281
-0.583977
-0.488097
-0.444371
-0.452922
-0.510135
-0.609354
-0.74009
-0.890636
-1.0484
-1.201
-1.33724
-1.44771
-1.52525
-1.56509
-2.44688
-2.39033
-2.28
-2.12054
-1.91899
-1.68486
-1.42995
-1.16787
-0.913258
-0.679914
-0.481454
-0.32824
-0.227538
-0.183582
-0.196552
-0.262719
-0.375323
-0.522994
-0.692665
-0.870157
-1.04154
-1.19428
-1.31795
-1.40466
-1.4492
-2.30331
-2.24043
-2.11761
-1.93999
-1.71548
-1.45489
-1.17183
-0.882002
-0.602466
-0.347726
-0.132347
0.0325122
0.139362
0.184785
0.167668
0.0905462
-0.0397787
-0.210397
-0.40673
-0.612257
-0.810649
-0.987296
-1.13018
-1.23026
-1.28165
-2.12189
-2.05097
-1.91231
-1.71178
-1.45852
-1.16524
-0.848258
-0.526109
-0.219072
0.0571482
0.288614
0.464758
0.578574
0.628293
0.610557
0.524485
0.37678
0.180875
-0.0468249
-0.286505
-0.51849
-0.725256
-0.89252
-1.00966
-1.06981
-1.91093
-1.83063
-1.67363
-1.44683
-1.161
-0.831467
-0.478795
-0.125249
0.205536
0.495749
0.733119
0.914727
1.03739
1.09662
1.08615
1.00043
0.843256
0.626015
0.366903
0.0904603
-0.179137
-0.420403
-0.615971
-0.753068
-0.823493
-1.68055
-1.59007
-1.41339
-1.15881
-0.83948
-0.474322
-0.0900179
0.285482
0.629032
0.921671
1.15253
1.32629
1.44971
1.52189
1.53055
1.464
1.31673
1.0915
0.808037
0.497265
0.189564
-0.0881119
-0.314215
-0.473087
-0.554773
-1.44237
-1.34153
-1.14504
-0.86332
-0.51328
-0.118902
0.290744
0.680487
1.01674
1.28103
1.47527
1.61794
1.73291
1.82997
1.8852
1.86632
1.75115
1.53752
1.24571
0.909185
0.566845
0.253602
-0.00325658
-0.184336
-0.277563
-1.20899
-1.09828
-0.883003
-0.575771
-0.197372
0.222073
0.644402
1.02501
1.32255
1.51964
1.63062
1.70158
1.7932
1.9318
2.07593
2.1529
2.1115
1.93821
1.65384
1.30162
0.930576
0.584913
0.299235
0.097303
-0.00686593
-0.993217
-0.874188
-0.642836
-0.313691
0.0880094
0.524836
0.947531
1.2991
1.52968
1.61586
1.58661
1.53776
1.58849
1.78841
2.06917
2.29748
2.37227
2.26636
2.00683
1.65066
1.25911
0.887238
0.576967
0.356443
0.242401
-0.806229
-0.68007
-0.435499
-0.0893041
0.32947
0.776546
1.19153
1.50422
1.65103
1.598
1.39722
1.2011
1.19733
1.46965
1.91239
2.32194
2.53912
2.51722
2.2919
1.94085
1.53656
1.14446
0.814158
0.578338
0.456143
-0.658965
-0.527636
-0.273585
0.0847339
0.515572
0.969694
1.37793
1.6574
1.73319
1.562
1.21428
0.887122
0.832512
1.16911
1.75357
2.31654
2.65484
2.70417
2.50765
2.16123
1.74791
1.34152
0.99701
0.750315
0.622293
-0.557823
-0.423797
-0.164565
0.200989
0.639884
1.10086
1.51142
1.78409
1.83787
1.62621
1.22474
0.847267
0.772774
1.1357
1.7752
2.39479
2.77547
2.84555
2.65569
2.3054
1.88358
1.4679
1.11542
0.862982
0.731954
-0.507292
-0.373206
-0.113173
0.254552
0.697734
1.16655
1.59208
1.89419
1.9908
1.84004
1.51159
1.19866
1.1506
1.48449
2.05681
2.60124
2.91724
2.94365
2.73128
2.36676
1.93735
1.51822
1.16424
0.91149
0.780676
-0.506539
-0.374699
-0.118679
0.244897
0.687029
1.1626
1.61069
1.96162
2.14761
2.13274
1.96644
1.79551
1.80333
2.07119
2.49286
2.86978
3.04798
2.98545
2.72669
2.34133
1.90749
1.49204
1.14422
0.896861
0.769044
-0.551542
-0.424531
-0.177484
0.175148
0.608627
1.08515
1.55328
1.9531
2.2357
2.37264
2.38782
2.37046
2.43516
2.62904
2.88405
3.07231
3.09921
2.9408
2.63014
2.22796
1.79744
1.39402
1.05986
0.823401
0.701454
-0.636952
-0.517303
-0.283621
0.0520593
0.469222
0.93736
1.41337
1.84578
2.20225
2.45673
2.61665
2.72122
2.82772
2.95981
3.07725
3.11181
3.01897
2.78646
2.43778
2.03171
1.61586
1.23403
0.920732
0.700035
0.586445
-0.753618
-0.642673
-0.425651
-0.112945
0.279099
0.726365
1.19335
1.63811
2.03583
2.35899
2.60353
2.77985
2.90821
2.99716
3.0255
2.96488
2.79801
2.52304
2.16366
1.77064
1.38039
1.02768
0.740645
0.539258
0.435794
-0.888933
-0.787854
-0.590036
-0.304412
0.0548551
0.467764
0.910047
1.35025
1.75823
2.10856
2.38931
2.59586
2.7302
2.79214
2.77368
2.66404
2.45969
2.17375
1.83169
1.46705
1.11125
0.793106
0.535704
0.355627
0.263233
-1.03165
-0.940701
-0.762645
-0.505119
-0.180132
0.195659
0.601815
1.01318
1.40572
1.75504
2.04234
2.25541
2.38711
2.43462
2.3959
2.27031
2.06248
1.78953
1.47593
1.14762
0.830943
0.549645
0.322829
0.164396
0.0831647
-1.17042
-1.08905
-0.929726
-0.699097
-0.407464
-0.0689484
0.298803
0.674876
1.03763
1.3636
1.63345
1.8354
1.963
2.00821
1.96767
1.84678
1.65379
1.40698
1.12796
0.838776
0.561534
0.316028
0.118324
-0.0197234
-0.0904941
-1.29479
-1.22179
-1.07891
-0.872068
-0.610331
-0.306043
0.0253706
0.365846
0.69581
0.994563
1.24457
1.4327
1.55167
1.59371
1.55745
1.4494
1.27793
1.06069
0.81634
0.564017
0.322575
0.10887
-0.0632798
-0.183551
-0.245227
-1.39595
-1.32965
-1.19991
-1.01218
-0.774671
-0.498505
-0.197493
0.112267
0.41321
0.687311
0.91854
1.09329
1.20416
1.2445
1.21436
1.12004
0.969613
0.778547
0.563893
0.34221
0.12991
-0.0582272
-0.209978
-0.316109
-0.370559
-1.46714
-1.40547
-1.28488
-1.11045
-0.889913
-0.63357
-0.354185
-0.0665431
0.213234
0.468737
0.685386
0.85012
0.955136
0.99523
0.970672
0.886926
0.752228
0.5805
0.387174
0.187153
-0.00474194
-0.175085
-0.312687
-0.409018
-0.458453
-1.5038
-1.44451
-1.3286
-1.16099
-0.949163
-0.703029
-0.434819
-0.158647
0.110073
0.355463
0.564252
0.723805
0.825784
0.86612
0.844872
0.766542
0.640105
0.478764
0.296493
0.107607
-0.0738241
-0.23506
-0.365423
-0.456732
-0.50357
-2.79359
-2.74503
-2.64989
-2.51195
-2.33693
-2.13256
-1.90851
-1.67613
-1.44788
-1.23657
-1.05436
-0.91159
-0.815815
-0.77105
-0.77738
-0.830997
-0.92452
-1.04788
-1.18938
-1.33695
-1.47903
-1.60538
-1.70754
-1.77914
-1.81599
-2.74401
-2.693
-2.59299
-2.44786
-2.26354
-2.04813
-1.81184
-1.56671
-1.32605
-1.10353
-0.912128
-0.762893
-0.663866
-0.619326
-0.629383
-0.689961
-0.79314
-0.927988
-1.08187
-1.24173
-1.39515
-1.53122
-1.641
-1.71783
-1.75733
-2.64687
-2.59099
-2.4813
-2.32191
-2.11917
-1.88192
-1.62146
-1.35128
-1.08636
-0.842074
-0.632901
-0.471153
-0.365744
-0.321399
-0.33839
-0.41231
-0.534216
-0.691603
-0.869909
-1.05411
-1.23003
-1.3854
-1.51034
-1.59754
-1.64231
-2.50596
-2.4429
-2.31896
-2.13857
-1.90877
-1.63951
-1.34384
-1.03752
-0.738012
-0.463153
-0.229366
-0.0502854
0.0643553
0.10918
0.0834256
-0.00850252
-0.156594
-0.34626
-0.560073
-0.779972
-0.989083
-1.17299
-1.32033
-1.42289
-1.47545
-2.32705
-2.2547
-2.11237
-1.90493
-1.64037
-1.33029
-0.990222
-0.639159
-0.29801
0.012388
0.273754
0.472123
0.597961
0.645266
0.611935
0.501166
0.323078
0.094388
-0.163822
-0.429252
-0.681131
-0.902013
-1.07846
-1.20098
-1.26366
-2.11787
-2.03451
-1.87037
-1.631
-1.32566
-0.968303
-0.57796
-0.178115
0.205803
0.549569
0.834226
1.04787
1.18422
1.23826
1.20453
1.08159
0.876903
0.608225
0.300949
-0.0168864
-0.31905
-0.583875
-0.79508
-0.941483
-1.01629
-1.88814
-1.79254
-1.60428
-1.32978
-0.980164
-0.572618
-0.130929
0.315164
0.73332
1.09549
1.38489
1.59831
1.74024
1.80974
1.79424
1.67931
1.46334
1.16309
0.808908
0.436536
0.0798623
-0.233548
-0.483532
-0.656676
-0.745071
-1.64924
-1.54088
-1.32755
-1.01688
-0.622437
-0.16574
0.322114
0.801822
1.23159
1.5783
1.83138
2.00925
2.14366
2.24534
2.2859
2.22136
2.02848
1.7184
1.32818
0.905232
0.494162
0.130669
-0.159853
-0.361102
-0.463808
-1.4138
-1.29296
-1.05521
-0.709639
-0.273064
0.226919
0.749372
1.24084
1.64414
1.91774
2.06381
2.14342
2.24546
2.40773
2.56924
2.62609
2.51246
2.22898
1.82337
1.36017
0.899509
0.488108
0.158027
-0.0708909
-0.187719
-1.19478
-1.0626
-0.802753
-0.426024
0.0470074
0.581239
1.12277
1.59884
1.92914
2.05758
2.00372
1.89751
1.93003
2.19193
2.56254
2.83274
2.86873
2.65657
2.26119
1.77235
1.27092
0.817273
0.451435
0.197295
0.0675379
-1.00452
-0.862989
-0.584989
-0.182919
0.318837
0.877362
1.42449
1.86475
2.08857
2.01745
1.68635
1.31397
1.23962
1.63756
2.29557
2.85373
3.0916
2.983
2.6179
2.11701
1.58526
1.09775
0.702558
0.427516
0.287011
-0.853675
-0.705451
-0.414481
0.00565218
0.527698
1.10261
1.65049
2.05637
2.18308
1.92723
1.33061
0.6912
0.503086
1.03786
1.97895
2.80995
3.23286
3.2182
2.88294
2.37627
1.82361
1.31203
0.895887
0.605945
0.45779
-0.750109
-0.5984
-0.300561
0.12944
0.663358
1.24988
1.80461
2.20461
2.30067
1.97694
1.27453
0.521837
0.283364
0.879644
1.9413
2.88096
3.37118
3.38553
3.05406
2.5384
1.9722
1.44718
1.01998
0.722415
0.570409
-0.697939
-0.546241
-0.248214
0.182761
0.719694
1.3138
1.88544
2.31923
2.47761
2.25499
1.68968
1.0745
0.897943
1.42806
2.34892
3.14956
3.53852
3.49124
3.12684
2.59576
2.02319
1.49619
1.06887
0.771688
0.61998
-0.697195
-0.549082
-0.257722
0.164846
0.694627
1.28902
1.87989
2.37116
2.65168
2.63914
2.36209
2.03071
1.97559
2.3656
2.98977
3.49633
3.67513
3.50819
3.09004
2.54399
1.97521
1.45886
1.04266
0.753947
0.606718
-0.744063
-0.602838
-0.324637
0.0801887
0.591447
1.17408
1.77355
2.31596
2.71857
2.92019
2.93226
2.87485
2.92968
3.18199
3.51271
3.7212
3.68462
3.39845
2.93416
2.38534
1.83441
1.34194
0.947579
0.674737
0.535732
-0.831365
-0.699721
-0.440141
-0.0613764
0.420039
0.9761
1.56451
2.13024
2.61263
2.96463
3.1797
3.30908
3.43306
3.58514
3.7061
3.69962
3.50964
3.14591
2.66381
2.13259
1.61515
1.1587
0.795187
0.544199
0.416402
-0.949077
-0.828926
-0.591895
-0.245434
0.196808
0.712526
1.26919
1.82528
2.33471
2.75864
3.07816
3.30278
3.45704
3.54854
3.55076
3.4259
3.1589
2.76944
2.30212
1.80927
1.33884
0.927551
0.601129
0.375966
0.261322
-1.0855
-0.977747
-0.76523
-0.454522
-0.0570933
0.409175
0.91852
1.43835
1.93278
2.36761
2.71811
2.97359
3.13273
3.19244
3.14187
2.97189
2.68786
2.31349
1.88584
1.44607
1.03096
0.669643
0.383208
0.18558
0.0849002
-1.2285
-1.13307
-0.944997
-0.670223
-0.318734
0.0945019
0.548758
1.01789
1.47207
1.88137
2.22029
2.47084
2.62226
2.66769
2.60325
2.4316
2.16593
1.83033
1.4559
1.07523
0.71748
0.406347
0.159487
-0.011065
-0.0980466
-1.36664
-1.28258
-1.11709
-0.875635
-0.567133
-0.204542
0.194717
0.608916
1.01311
1.38148
1.69037
1.92085
2.05978
2.1
2.04051
1.88763
1.65611
1.36789
1.04901
0.725795
0.421983
0.157277
-0.0532527
-0.199027
-0.273488
-1.48977
-1.41545
-1.26932
-1.05648
-0.785064
-0.466588
-0.116181
0.247593
0.60354
0.929469
1.20451
1.41144
1.53788
1.57716
1.52914
1.40072
1.20569
0.962943
0.694274
0.421372
0.164039
-0.0609808
-0.240561
-0.365252
-0.429061
-1.5895
-1.52283
-1.39188
-1.2015
-0.959255
-0.675633
-0.364145
-0.0410911
0.275131
0.565311
0.811264
0.997757
1.1137
1.15333
1.11681
1.01056
0.846634
0.641244
0.412748
0.179549
-0.0413801
-0.235421
-0.39087
-0.499122
-0.554622
-1.6595
-1.59806
-1.47752
-1.30253
-1.08028
-0.820594
-0.535923
-0.241082
0.0473981
0.312407
0.537743
0.709701
0.81835
0.858583
0.830709
0.7405
0.598583
0.419182
0.218362
0.0123426
-0.183743
-0.356665
-0.495662
-0.5927
-0.642531
-1.69555
-1.63677
-1.52151
-1.35432
-1.14222
-0.89468
-0.623631
-0.343153
-0.0688488
0.18327
0.39801
0.5625
0.667464
0.708113
0.684781
0.602882
0.472243
0.306065
0.119294
-0.0729693
-0.256497
-0.418745
-0.549423
-0.640789
-0.687765
-3.08874
-3.04311
-2.95332
-2.82247
-2.6554
-2.45885
-2.24156
-2.01413
-1.78867
-1.57804
-1.39481
-1.25004
-1.15195
-1.10509
-1.1096
-1.16129
-1.25214
-1.37193
-1.50864
-1.65026
-1.78569
-1.90538
-2.00168
-2.06896
-2.10356
-3.04209
-2.99378
-2.89863
-2.75978
-2.58217
-2.37281
-2.14091
-1.89781
-1.6566
-1.43136
-1.23586
-1.08235
-0.979973
-0.933664
-0.94353
-1.00486
-1.10866
-1.24324
-1.39535
-1.5518
-1.70054
-1.83137
-1.93625
-2.00933
-2.04684
-2.95029
-2.89661
-2.79075
-2.63585
-2.4371
-2.20199
-1.94069
-1.66601
-1.39304
-1.13838
-0.918207
-0.747105
-0.636008
-0.590693
-0.611279
-0.692029
-0.821832
-0.986395
-1.16972
-1.35617
-1.53179
-1.68509
-1.80721
-1.89192
-1.93528
-2.8164
-2.75473
-2.63283
-2.4539
-2.22337
-1.94948
-1.64383
-1.32153
-1.00066
-0.701801
-0.444871
-0.247545
-0.123078
-0.0789098
-0.115232
-0.224822
-0.393683
-0.603712
-0.834514
-1.06659
-1.28301
-1.47028
-1.61842
-1.72063
-1.77276
-2.64531
-2.57309
-2.43004
-2.21932
-1.94668
-1.62132
-1.25676
-0.871427
-0.487685
-0.131331
0.172702
0.403334
0.545282
0.589101
0.533952
0.388156
0.16847
-0.101801
-0.396114
-0.689444
-0.960605
-1.19334
-1.37616
-1.50161
-1.56538
-2.44376
-2.35872
-2.18989
-1.94035
-1.61619
-1.22789
-0.791537
-0.330193
0.127548
0.549401
0.905285
1.17101
1.33164
1.37835
1.30728
1.12414
0.84683
0.504867
0.133042
-0.235962
-0.574968
-0.86396
-1.08955
-1.24359
-1.32162
-2.22054
-2.12086
-1.92253
-1.62848
-1.24525
-0.785074
-0.267566
0.277478
0.810754
1.29111
1.68529
1.97386
2.151
2.21138
2.14258
1.93663
1.60688
1.18993
0.731756
0.276029
-0.141571
-0.495855
-0.770976
-0.957993
-1.05245
-1.98635
-1.87092
-1.64082
-1.29875
-0.85173
-0.31451
0.285918
0.908883
1.50184
2.01004
2.39764
2.66636
2.84436
2.94108
2.92138
2.74003
2.39042
1.91224
1.36825
0.820855
0.31832
-0.107017
-0.436051
-0.6589
-0.771168
-1.7534
-1.6221
-1.35999
-0.969694
-0.459332
0.152299
0.828946
1.5125
2.12569
2.59052
2.87331
3.02686
3.16609
3.34604
3.4747
3.41621
3.11473
2.61233
1.99909
1.36506
0.777978
0.280733
-0.103163
-0.362552
-0.492948
-1.53471
-1.38847
-1.09637
-0.661217
-0.0927503
0.584656
1.32153
2.03392
2.60419
2.91499
2.93288
2.80351
2.82805
3.17228
3.61899
3.84181
3.69587
3.22953
2.57703
1.87097
1.20712
0.642646
0.207104
-0.0865739
-0.233959
-1.34325
-1.18454
-0.867265
-0.3944
0.222291
0.951863
1.72896
2.43686
2.90368
2.94984
2.52555
1.90929
1.71763
2.32974
3.29666
3.97306
4.08928
3.71759
3.05883
2.30065
1.57421
0.953434
0.474361
0.151731
-0.00999282
-1.19007
-1.02241
-0.687044
-0.187053
0.464145
1.23008
2.03164
2.72254
3.07644
2.8415
1.93125
0.742857
0.274789
1.20665
2.7718
3.94197
4.33349
4.06576
3.41491
2.62284
1.85212
1.19088
0.680485
0.337078
0.165097
-1.08392
-0.911692
-0.567058
-0.053054
0.616558
1.40345
2.22321
2.91721
3.23517
2.88884
1.76446
0.300513
-0.311276
0.78603
2.63848
4.0254
4.52439
4.28818
3.62931
2.81483
2.02007
1.338
0.811839
0.458093
0.281041
-1.02922
-0.857295
-0.513279
0.000152451
0.670426
1.46209
2.29689
3.02833
3.43193
3.25284
2.39832
1.25531
0.809757
1.73277
3.2588
4.37337
4.70704
4.38718
3.69114
2.86416
2.06674
1.3856
0.861181
0.508801
0.332401
-1.02644
-0.859783
-0.526217
-0.0279683
0.624311
1.40117
2.23854
3.02
3.57334
3.71391
3.38088
2.83688
2.68022
3.27799
4.18365
4.77039
4.78954
4.32727
3.58925
2.76783
1.99206
1.33413
0.82869
0.489188
0.319215
-1.07162
-0.91453
-0.600145
-0.130411
0.485964
1.22576
2.04067
2.84707
3.52382
3.94678
4.06949
4.02072
4.08303
4.41086
4.79008
4.91154
4.65142
4.07478
3.32449
2.53672
1.80767
1.19354
0.722393
0.405783
0.247161
-1.1566
-1.01227
-0.723813
-0.29327
0.27204
0.953874
1.71696
2.50346
3.22869
3.80777
4.19413
4.42462
4.59833
4.76186
4.82614
4.66932
4.25332
3.63674
2.92056
2.19677
1.53614
0.981784
0.556398
0.270098
0.12646
-1.27079
-1.14134
-0.883016
-0.498077
0.00666349
0.616238
1.30426
2.02914
2.73001
3.3451
3.82662
4.16318
4.37081
4.45283
4.37636
4.1068
3.65175
3.06564
2.42165
1.78438
1.20656
0.721745
0.3488
0.0970753
-0.0294857
-1.40272
-1.28877
-1.06181
-0.724569
-0.283467
0.248834
0.849989
1.48757
2.11837
2.69385
3.16913
3.51498
3.71702
3.76523
3.64861
3.36785
2.94792
2.43452
1.8822
1.34117
0.850948
0.43824
0.119352
-0.0967489
-0.205698
-1.5402
-1.44118
-1.24443
-0.953175
-0.573863
-0.117877
0.396331
0.942612
1.48643
1.98908
2.41253
2.72558
2.90701
2.94435
2.83463
2.58882
2.23395
1.80777
1.35196
0.905407
0.498981
0.154753
-0.112808
-0.295008
-0.38716
-1.67213
-1.58652
-1.41686
-1.16677
-0.842725
-0.455288
-0.0202787
0.440577
0.899632
1.32617
1.68886
1.95952
2.11715
2.1519
2.06447
1.86632
1.58096
1.23819
0.870367
0.507789
0.175256
-0.108584
-0.330736
-0.482832
-0.560028
-1.78901
-1.71462
-1.56761
-1.35178
-1.07361
-0.74296
-0.373796
0.0154619
0.402255
0.761649
1.06818
1.29909
1.43693
1.47372
1.41043
1.25688
1.0322
0.759523
0.464253
0.170416
-0.101622
-0.335849
-0.520521
-0.647663
-0.712425
-1.88319
-1.81746
-1.68783
-1.49824
-1.25504
-0.967541
-0.648323
-0.313389
0.0182737
0.325943
0.588842
0.788807
0.911704
0.951038
0.907448
0.78888
0.610569
0.390916
0.150105
-0.0921446
-0.318632
-0.515323
-0.671505
-0.779604
-0.834854
-1.94907
-1.88917
-1.77128
-1.59933
-1.37958
-1.12091
-0.83496
-0.536153
-0.241151
0.0321767
0.266115
0.445444
0.558494
0.599612
0.569282
0.474151
0.326597
0.141908
-0.0629658
-0.271095
-0.467347
-0.63902
-0.776137
-0.871456
-0.920314
-1.98294
-1.92599
-1.81399
-1.65089
-1.44288
-1.19859
-0.929222
-0.648384
-0.371596
-0.115216
0.104394
0.27346
0.381664
0.42364
0.399857
0.316436
0.184116
0.0166338
-0.170449
-0.361648
-0.542863
-0.702062
-0.829652
-0.918575
-0.964245
-3.47585
-3.43538
-3.35555
-3.23854
-3.08794
-2.90903
-2.70898
-2.49696
-2.28398
-2.08226
-1.90424
-1.76126
-1.66202
-1.61144
-1.60981
-1.65291
-1.73275
-1.83906
-1.96039
-2.08555
-2.20455
-2.30912
-2.39283
-2.45108
-2.48095
-3.43433
-3.39114
-3.3058
-3.18041
-3.01856
-2.8256
-2.60907
-2.37881
-2.14692
-1.92714
-1.73364
-1.57948
-1.47475
-1.42503
-1.43048
-1.48594
-1.58185
-1.7061
-1.84554
-1.98765
-2.12147
-2.23816
-2.33102
-2.39538
-2.42829
-3.35241
-3.3037
-3.2072
-3.06482
-2.88003
-2.65832
-2.40786
-2.13987
-1.86868
-1.61123
-1.38535
-1.20778
-1.09155
-1.04371
-1.06416
-1.14565
-1.27526
-1.43701
-1.61417
-1.79133
-1.95563
-2.09712
-2.20863
-2.28536
-2.32444
-3.23224
-3.17516
-3.06165
-2.89327
-2.67315
-2.40685
-2.10333
-1.77584
-1.44225
-1.12468
-0.847003
-0.631908
-0.497168
-0.452445
-0.497187
-0.620748
-0.804649
-1.02653
-1.26367
-1.49614
-1.70809
-1.88803
-2.02825
-2.12394
-2.17242
-3.07742
-3.00906
-2.87258
-2.66884
-2.40028
-2.07224
-1.69455
-1.28318
-0.861059
-0.457799
-0.106255
0.162281
0.323487
0.364033
0.284709
0.100721
-0.161484
-0.469834
-0.79263
-1.10325
-1.3818
-1.61493
-1.79447
-1.91593
-1.97713
-2.89322
-2.81077
-2.64546
-2.397
-2.06661
-1.65896
-1.18463
-0.663185
-0.124752
0.39055
0.83778
1.17481
1.37031
1.40731
1.2852
1.02282
0.656716
0.232862
-0.203973
-0.617734
-0.983171
-1.28482
-1.51449
-1.66853
-1.74573
-2.68686
-2.58785
-2.38843
-2.08665
-1.6818
-1.17729
-0.584572
0.0717389
0.750624
1.39682
1.95032
2.36041
2.5949
2.63572
2.47458
2.1261
1.63603
1.06945
0.490294
-0.0516762
-0.524013
-0.90897
-1.19886
-1.39169
-1.48781
-2.46763
-2.35023
-2.11279
-1.75105
-1.26164
-0.646349
0.0812781
0.888623
1.71814
2.49064
3.12675
3.57913
3.8419
3.91097
3.75013
3.34181
2.73076
2.00678
1.26349
0.572379
-0.0236072
-0.503905
-0.861996
-1.09835
-1.21559
-2.24665
-2.11015
-1.83302
-1.40833
-0.829652
-0.0972436
0.77179
1.73064
2.69165
3.53304
4.14758
4.52266
4.7612
4.92632
4.89332
4.52933
3.84974
2.98178
2.06911
1.21875
0.490094
-0.0919344
-0.522184
-0.804246
-0.943541
-2.03636
-1.88149
-1.5661
-1.08049
-0.415171
0.430346
1.43214
2.51906
3.54997
4.32238
4.67334
4.67704
4.7481
5.16697
5.56053
5.47907
4.86155
3.90545
2.84272
1.83952
0.981091
0.299477
-0.200992
-0.527205
-0.687695
-1.84955
-1.6789
-1.33047
-0.792028
-0.0515347
0.891104
2.00162
3.17394
4.18526
4.69382
4.42116
3.58521
3.22685
4.17336
5.46111
6.00953
5.63975
4.68244
3.51192
2.37973
1.40861
0.64026
0.0788524
-0.285491
-0.464217
-1.69773
-1.5156
-1.14309
-0.566036
0.229429
1.24252
2.42875
3.64697
4.58503
4.72656
3.6152
1.54253
0.475847
2.21797
4.78563
6.17997
6.15426
5.24978
4.01361
2.78772
1.73393
0.902126
0.2963
-0.0957232
-0.28765
-1.58997
-1.40203
-1.01738
-0.420838
0.402579
1.45226
2.6801
3.93016
4.84901
4.82969
3.29323
0.514378
-1.00651
1.23549
4.52725
6.34726
6.4708
5.57522
4.29798
3.022
1.92643
1.06288
0.435072
0.0294069
-0.169021
-1.53131
-1.34397
-0.960693
-0.366441
0.45408
1.5021
2.73566
4.01627
5.03474
5.27388
4.26847
2.28755
1.26833
2.99228
5.47612
6.76044
6.63037
5.63924
4.33521
3.05893
1.96835
1.11023
0.486363
0.0830601
-0.114309
-1.52232
-1.34191
-0.973279
-0.402727
0.384047
1.39027
2.58552
3.86725
5.01445
5.68045
5.56927
4.8676
4.5767
5.49595
6.66468
7.04846
6.51267
5.41064
4.12298
2.90091
1.86282
1.04587
0.450837
0.0653674
-0.123558
-1.55894
-1.3908
-1.04802
-0.51929
0.207272
1.13528
2.24447
3.46624
4.65775
5.60735
6.13074
6.27285
6.4103
6.79974
7.0737
6.82012
6.01919
4.89499
3.69076
2.57462
1.62943
0.883646
0.338173
-0.0165627
-0.190881
-1.63308
-1.48096
-1.17191
-0.697613
-0.0496629
0.774035
1.75901
2.85928
3.98206
4.99473
5.76953
6.26646
6.56033
6.69796
6.56017
6.04103
5.18838
4.15449
3.09668
2.12567
1.30136
0.646905
0.164994
-0.150168
-0.305607
-1.7343
-1.60021
-1.32887
-0.915013
-0.354027
0.353502
1.19513
2.13715
3.11537
4.03967
4.81278
5.3656
5.67236
5.71835
5.47168
4.93339
4.17203
3.29816
2.4186
1.61012
0.918353
0.363826
-0.0481743
-0.31953
-0.45397
-1.85133
-1.7355
-1.50213
-1.14868
-0.673804
-0.0807997
0.617685
1.39442
2.20255
2.97676
3.64227
4.13248
4.40151
4.42427
4.19546
3.74254
3.12828
2.43296
1.73191
1.08194
0.519257
0.0627456
-0.280022
-0.507613
-0.620946
-1.97292
-1.8742
-1.67621
-1.37856
-0.982518
-0.493418
0.0761227
0.703082
1.35111
1.97158
2.50858
2.90872
3.13124
3.15452
2.97994
2.63466
2.16734
1.63555
1.09343
0.583951
0.136471
-0.231509
-0.510989
-0.698171
-0.79189
-2.08902
-2.00528
-1.83811
-1.58863
-1.25991
-0.858549
-0.396756
0.105722
0.620292
1.11048
1.535
1.85383
2.03575
2.06508
1.94439
1.69435
1.34992
0.951886
0.539518
0.145529
-0.206058
-0.499333
-0.724729
-0.87703
-0.953707
-2.19132
-2.11984
-1.97777
-1.76722
-1.4923
-1.16023
-0.782555
-0.376247
0.0358347
0.425883
0.763349
1.01911
1.17048
1.20626
1.12837
0.951392
0.699977
0.403031
0.0894225
-0.215628
-0.49235
-0.726507
-0.908588
-1.03269
-1.09551
-2.27335
-2.21115
-2.08797
-1.90649
-1.67138
-1.39004
-1.07327
-0.735847
-0.396536
-0.0772152
0.198936
0.410434
0.54063
0.581265
0.533456
0.407422
0.220812
-0.00523857
-0.248936
-0.490279
-0.712696
-0.903458
-1.05341
-1.15645
-1.20886
-2.33051
-2.27449
-2.16385
-2.00157
-1.79258
-1.54424
-1.26673
-0.973322
-0.680139
-0.405324
-0.167558
0.0162905
0.133298
0.176902
0.147716
0.0533528
-0.0928295
-0.274383
-0.473803
-0.674397
-0.861734
-1.0242
-1.15306
-1.24216
-1.28768
-2.35983
-2.30689
-2.2025
-2.04974
-1.85365
-1.62151
-1.36318
-1.09115
-0.820247
-0.566791
-0.347391
-0.176768
-0.0660651
-0.0211021
-0.0414719
-0.120732
-0.247593
-0.407809
-0.585847
-0.766632
-0.93681
-1.08536
-1.20378
-1.28598
-1.32807
-3.93916
-3.90688
-3.84296
-3.74852
-3.62562
-3.4776
-3.30941
-3.12793
-2.94198
-2.76204
-2.59933
-2.46456
-2.36633
-2.30969
-2.29535
-2.31968
-2.37556
-2.45384
-2.54469
-2.63881
-2.72818
-2.80645
-2.86886
-2.91215
-2.9343
-3.90579
-3.87104
-3.80204
-3.69975
-3.56605
-3.40418
-3.21924
-3.01862
-2.81222
-2.61216
-2.43176
-2.28395
-2.17916
-2.1234
-2.11714
-2.15543
-2.22914
-2.3269
-2.43694
-2.54856
-2.65288
-2.74311
-2.8144
-2.86353
-2.88858
-3.83966
-3.79983
-3.72042
-3.60198
-3.44591
-3.25516
-3.03496
-2.7937
-2.54348
-2.29997
-2.08114
-1.90495
-1.786
-1.73245
-1.74424
-1.81334
-1.92597
-2.06582
-2.21692
-2.3656
-2.50126
-2.61638
-2.706
-2.76712
-2.79808
-3.74188
-3.6942
-3.59862
-3.45489
-3.26347
-3.02648
-2.74908
-2.44095
-2.11759
-1.80065
-1.5163
-1.29148
-1.14846
-1.09941
-1.14319
-1.26601
-1.44552
-1.65661
-1.87608
-2.08545
-2.27165
-2.42637
-2.54484
-2.62467
-2.6648
-3.61448
-3.55597
-3.43797
-3.25884
-3.01722
-2.71353
-2.3521
-1.94387
-1.50904
-1.0784
-0.691362
-0.389934
-0.209311
-0.168452
-0.264449
-0.473545
-0.758774
-1.08029
-1.40353
-1.70311
-1.96293
-2.17429
-2.33343
-2.43934
-2.49218
-3.4608
-3.38838
-3.24137
-3.01585
-2.70741
-2.31319
-1.83524
-1.28518
-0.689243
-0.0915221
0.448115
0.863926
1.10051
1.12826
0.952232
0.611698
0.167525
-0.31675
-0.789342
-1.21556
-1.57631
-1.8637
-2.07645
-2.21629
-2.28551
-3.28583
-3.19654
-3.01404
-2.73101
-2.33819
-1.82717
-1.19547
-0.454073
0.363289
1.19323
1.94529
2.51969
2.8344
2.8459
2.55836
2.03071
1.36018
0.647347
-0.0302997
-0.625844
-1.11805
-1.50213
-1.78173
-1.96326
-2.05244
-3.09655
-2.98794
-2.76445
-2.41401
-1.92038
-1.26685
-0.443382
0.54138
1.64353