/*--------------------------------*- C++ -*----------------------------------*\
| =========                 |                                                 |
| \\      /  F ield         | OpenFOAM: The Open Source CFD Toolbox           |
|  \\    /   O peration     | Version:  2412                                  |
|   \\  /    A nd           | Website:  www.openfoam.com                      |
|    \\/     M anipulation  |                                                 |
\*---------------------------------------------------------------------------*/
FoamFile
{
    version     2.0;
    format      ascii;
    arch        "LSB;label=32;scalar=64";
    class       volScalarField;
    location    "466";
    object      p;
}
// * * * * * * * * * * * * * * * * * * * * * * * * * * * * * * * * * * * * * //

dimensions      [0 2 -2 0 0 0 0];

internalField   nonuniform List<scalar> 
231232
(
1.75997
4.92292
7.49557
10.0552
12.6606
15.3199
18.0013
20.6285
23.0879
25.2386
26.93
28.0253
28.4275
28.0996
27.0728
25.4394
23.3325
20.9007
18.2843
15.5974
12.918
10.2791
7.67427
5.04596
1.80497
4.92141
12.7576
19.2485
25.813
32.527
39.4167
46.3997
53.2744
59.7389
65.4152
69.8942
72.8013
73.8687
72.9943
70.265
65.9359
60.3721
53.9778
47.1297
40.1315
33.1889
26.3884
19.7081
13.0771
5.04767
7.48898
19.2373
29.015
38.9744
49.2322
59.8402
70.6764
81.4267
91.6096
100.609
107.749
112.399
114.106
112.696
108.319
101.409
92.5797
82.5011
71.7881
60.9259
50.2351
39.8446
29.7092
19.7202
7.68154
10.0385
25.7776
38.9435
52.4569
66.5007
81.1666
96.2991
111.462
125.96
138.884
149.208
155.963
158.443
156.375
149.996
139.985
127.291
112.929
97.812
82.6387
67.8559
53.6295
39.877
26.4261
10.2972
12.6273
32.4508
49.1455
66.4364
84.5996
103.789
123.826
144.143
163.793
181.49
195.748
205.131
208.574
205.669
196.776
182.922
165.516
146.035
125.767
105.669
86.3231
67.9226
50.3254
33.2689
12.9535
15.2626
39.2809
59.6689
80.999
103.675
127.944
153.626
180.017
205.873
229.434
248.604
261.304
265.967
261.985
249.902
231.235
208.029
182.372
156.028
130.258
105.786
82.8117
61.1034
40.2732
15.6577
17.9124
46.1842
70.3896
95.9856
123.544
153.444
185.538
218.992
252.226
282.904
308.137
324.98
331.169
325.822
309.738
285.113
254.856
221.845
188.43
156.214
126.057
98.1347
72.0842
47.3534
18.3773
20.5005
52.9595
80.9937
110.959
143.635
179.581
218.72
260.12
301.844
340.882
373.361
395.22
403.264
396.239
375.293
343.533
304.98
263.5
222.123
182.819
146.557
113.446
82.9473
54.3035
21.0341
22.9144
59.3076
91.0031
125.229
163.005
205.11
251.593
301.461
352.436
400.772
441.46
469.072
479.254
470.279
443.737
403.881
356.09
305.372
255.504
208.809
166.325
128.041
93.2037
60.8175
23.5127
25.0153
64.8556
99.8095
137.895
180.379
228.286
281.827
340.009
400.256
458.101
507.328
541.004
553.45
542.395
509.945
461.655
404.408
344.424
286.214
232.41
184.061
141
102.232
66.5132
25.6711
26.6553
69.2017
106.747
147.945
194.289
247.032
306.56
371.919
440.318
506.671
563.657
602.903
617.438
604.458
566.573
510.615
444.901
376.765
311.349
251.511
198.271
151.292
109.35
70.9793
27.3577
27.7012
71.9806
111.201
154.432
203.326
259.303
322.887
393.173
467.246
539.598
602.119
645.37
661.414
647.047
605.256
543.827
472.14
398.328
327.961
264.033
207.518
157.946
113.928
73.8408
28.4356
28.0597
72.9342
112.732
156.67
206.456
263.571
328.593
400.641
476.757
551.287
615.83
660.554
677.159
662.29
619.074
555.653
481.8
405.942
333.802
268.419
210.746
160.262
115.518
74.8326
28.8089
27.6973
71.9698
111.184
154.41
203.297
259.269
322.848
393.131
467.204
539.562
602.094
645.363
661.43
647.084
605.311
543.892
472.209
398.395
328.022
264.086
207.563
157.981
113.954
73.8583
28.4426
26.6478
69.1814
106.716
147.903
194.236
246.968
306.488
371.842
440.243
506.606
563.614
602.893
617.468
604.528
566.674
510.735
445.028
376.889
311.463
251.611
198.355
151.358
109.399
71.0126
27.371
25.005
64.8279
99.767
137.838
180.307
228.201
281.733
339.909
400.16
458.019
507.277
540.995
553.492
542.489
510.079
461.815
404.578
344.591
286.368
232.545
184.175
141.092
102.3
66.5593
25.6895
22.9024
59.2752
90.9536
125.163
162.923
205.014
251.487
301.351
352.332
400.687
441.409
469.068
479.306
470.386
443.889
404.063
356.284
305.564
255.683
208.967
166.459
128.15
93.2855
60.8725
23.5348
20.4877
52.925
80.9413
110.89
143.549
179.482
218.613
260.011
301.743
340.802
373.317
395.223
403.323
396.352
375.45
343.72
305.181
263.7
222.311
182.987
146.701
113.563
83.0359
54.3634
21.0581
17.8998
46.1501
70.3381
95.9179
123.461
153.351
185.438
218.892
252.136
282.835
308.102
324.99
331.23
325.933
309.89
285.294
255.051
222.04
188.615
156.381
126.201
98.2522
72.1738
47.4142
18.4018
15.2508
39.2492
59.6213
80.937
103.601
127.86
153.538
179.93
205.796
229.378
248.579
261.319
266.027
262.088
250.042
231.4
208.207
182.552
156.199
130.414
105.921
82.9233
61.189
40.3315
15.6813
12.617
32.4231
49.1041
66.3828
84.5358
103.718
123.752
144.072
163.732
181.447
195.732
205.149
208.63
205.761
196.899
183.066
165.673
146.194
125.919
105.808
86.4444
68.0231
50.4029
33.3219
12.9749
10.03
25.7549
38.9097
52.4135
66.4496
81.1103
96.2411
111.407
125.914
138.854
149.2
155.983
158.492
156.453
150.098
140.105
127.421
113.062
97.9393
82.7558
67.9587
53.7151
39.9432
26.4714
10.3156
7.48269
19.2204
28.9898
38.9422
49.1945
59.7991
70.6346
81.3879
91.5781
100.59
107.746
112.417
114.146
112.758
108.399
101.502
92.6804
82.6037
71.8872
61.0174
50.3156
39.9119
29.7614
19.756
7.69609
4.91744
12.7468
19.2325
25.7926
32.5032
39.391
46.374
53.251
59.7208
65.4054
69.8959
72.8167
73.8988
73.0384
70.3211
66.0006
60.4419
54.0487
47.1983
40.1949
33.2448
26.4352
19.7445
13.102
5.0577
1.75866
4.91916
7.48996
10.0481
12.6525
15.3111
17.9928
20.6211
23.0827
25.2368
26.9328
28.0335
28.4413
28.1188
27.0966
25.4665
23.3615
20.93
18.3126
15.6235
12.941
10.2983
7.68918
5.05608
1.80867
4.69428
9.08445
13.3922
17.9308
22.5439
27.2678
32.0399
36.7216
41.1106
44.9545
47.9819
49.9451
50.6674
50.0815
48.2444
45.3234
41.5597
37.221
32.5588
27.7767
23.0158
18.3419
13.7209
9.31843
4.81789
9.08132
13.9784
20.0989
26.8311
33.7069
40.823
48.0701
55.2321
61.9934
67.9533
72.673
75.7456
76.8771
75.9549
73.0749
68.5168
62.6777
55.991
48.8566
41.5926
34.4196
27.4525
20.5972
14.3416
9.32194
13.3793
20.0858
28.8551
38.5874
48.6035
59.0669
69.8218
80.5487
90.765
99.843
107.08
111.813
113.556
112.123
107.674
100.674
91.7705
81.6599
70.9695
60.1862
49.6371
39.4868
29.5753
20.6112
13.7351
17.8989
26.7913
38.5551
51.7154
65.3915
79.8296
94.8329
109.963
124.527
137.595
148.1
155.007
157.552
155.436
148.92
138.739
125.905
111.479
96.3923
81.3442
66.785
52.9242
39.5207
27.4947
18.3764
22.4814
33.6226
48.5131
65.3247
83.0011
101.897
121.792
142.121
161.946
179.948
194.566
204.246
207.813
204.809
195.639
181.439
163.733
144.077
123.792
103.83
84.7712
66.8542
49.7312
34.5081
23.0827
27.1612
40.6738
58.8889
79.656
101.78
125.763
151.384
177.961
204.263
228.481
248.379
261.667
266.568
262.385
249.744
230.366
206.51
180.405
153.867
128.146
103.951
81.5235
60.3708
41.7481
27.8896
31.8752
47.8344
69.524
94.5084
121.5
151.196
183.425
217.402
251.575
283.53
310.141
328.085
334.715
328.981
311.839
285.861
254.334
220.378
186.427
154.06
124.092
96.7268
71.2772
49.1012
32.7324
36.4852
54.8885
80.0989
109.442
141.595
177.508
217.119
259.588
303.041
344.353
379.266
403.064
411.882
404.163
381.336
347.177
306.357
263.136
220.668
180.869
144.618
112.015
82.1237
56.3467
37.4693
40.7907
61.5233
90.1345
123.768
161.128
203.469
250.911
302.636
356.482
408.553
453.245
484.068
495.527
485.385
455.717
411.9
360.379
306.771
255.014
207.325
164.573
126.685
92.4201
63.1636
41.8949
44.543
67.3433
99.0103
136.567
178.792
227.28
282.396
343.425
407.998
471.479
526.798
565.401
579.812
566.942
529.675
475.347
412.466
348.125
287.022
231.597
182.626
139.796
101.531
69.1468
45.754
47.4759
71.918
106.036
146.784
193.043
246.729
308.472
377.721
452.007
526.075
591.494
637.622
654.91
639.369
594.741
530.411
456.979
382.913
313.547
251.435
197.202
150.272
108.749
73.8544
48.7735
49.3483
74.8506
110.562
153.409
202.358
259.56
325.859
400.862
482.074
563.842
636.74
688.511
707.968
690.415
640.267
568.53
487.418
406.412
331.258
264.544
206.746
157.078
113.41
76.8789
50.7056
49.9905
75.8582
112.122
155.701
205.594
264.042
331.97
409.051
492.792
577.405
653.093
706.985
727.265
708.967
656.758
582.264
498.317
414.773
337.523
269.157
210.09
159.454
115.032
77.9292
51.3753
49.3414
74.8385
110.544
153.385
202.326
259.521
325.814
400.811
482.021
563.794
636.705
688.499
707.985
690.461
640.335
568.609
487.5
406.49
331.327
264.603
206.794
157.116
113.438
76.8984
50.7192
47.4629
71.8952
106.002
146.738
192.984
246.657
308.388
377.63
451.914
525.99
591.435
637.604
654.943
639.454
594.864
530.556
457.13
383.056
313.675
251.546
197.293
150.344
108.803
73.8914
48.7995
44.5253
67.3123
98.9645
136.505
178.713
227.186
282.288
343.308
407.882
471.376
526.728
565.384
579.859
567.053
529.835
475.535
412.663
348.314
287.194
231.745
182.749
139.895
101.605
69.1979
45.79
40.77
61.4871
90.0813
123.697
161.038
203.363
250.792
302.51
356.359
408.449
453.179
484.057
495.585
485.509
455.894
412.109
360.599
306.985
255.21
207.496
164.717
126.801
92.5072
63.2245
41.938
36.4633
54.8502
80.043
109.368
141.503
177.401
217
259.465
302.925
344.258
379.209
403.063
411.945
404.29
381.514
347.387
306.58
263.356
220.872
181.05
144.771
112.139
82.2177
56.4127
37.5163
31.8537
47.7967
69.4694
94.4366
121.412
151.095
183.315
217.29
251.472
283.45
310.098
328.092
334.781
329.104
312.008
286.061
254.547
220.59
186.625
154.237
124.244
96.851
71.3719
49.168
32.7802
27.1413
40.6389
58.8387
79.5906
101.701
125.673
151.289
177.866
204.178
228.417
248.349
261.681
266.632
262.498
249.897
230.546
206.704
180.598
154.049
128.311
104.094
81.641
60.4608
41.8119
27.9357
22.4641
33.5921
48.4695
65.2684
82.9338
101.822
121.713
142.044
161.879
179.901
194.547
204.264
207.872
204.908
195.772
181.594
163.901
144.246
123.953
103.977
84.8985
66.9598
49.8126
34.5661
23.1247
17.8849
26.7663
38.5196
51.6699
65.3376
79.77
94.7712
109.904
124.477
137.562
148.09
155.027
157.604
155.52
149.03
138.867
126.044
111.619
96.5268
81.4674
66.8929
53.0141
39.5902
27.5445
18.4124
13.3689
20.0671
28.8285
38.5535
48.5637
59.0233
69.7773
80.507
90.7309
99.8218
107.077
111.832
113.599
112.188
107.759
100.773
91.8774
81.7683
71.074
60.2824
49.7217
39.5576
29.6302
20.6506
13.7636
9.07464
13.9659
20.0811
26.8086
33.6806
40.7945
48.0414
55.2059
61.9729
67.9421
72.6744
75.7623
76.9102
76.0036
73.1368
68.5883
62.7546
56.069
48.9319
41.662
34.4809
27.5039
20.6371
14.3703
9.34222
4.69138
9.0782
13.3831
17.9195
22.5311
27.2544
32.0274
36.7116
41.1053
44.956
47.9921
49.9656
50.6986
50.1228
48.294
45.3789
41.6182
37.2797
32.615
27.8283
23.0612
18.3797
13.7502
9.33893
4.82894
8.82374
13.1819
19.3117
25.7067
32.2124
38.9268
45.7294
52.419
58.7048
64.2225
68.5777
71.4078
72.4524
71.6116
68.9694
64.7724
59.3736
53.1621
46.501
39.6832
32.914
26.3198
19.8046
13.5342
9.06328
13.1758
13.5252
19.594
25.7801
32.1563
38.9124
45.8667
52.8107
59.4312
65.3211
70.0242
73.1072
74.2506
73.3304
70.452
65.9191
60.1548
53.6104
46.693
39.7194
32.9034
26.4355
20.1261
13.9075
13.5409
19.2899
19.5794
28.5528
37.6527
47.124
57.2657
67.817
78.4695
88.7356
97.9602
105.389
110.287
112.104
110.627
106.039
98.867
89.8286
79.6724
69.0549
58.4699
48.2351
38.6245
29.3403
20.1415
19.8283
25.6556
25.7364
37.6167
49.7669
62.5665
76.449
91.0877
106.072
120.71
134.032
144.878
152.084
154.759
152.554
145.774
135.276
122.201
107.704
92.7579
78.0654
64.051
51.0606
38.6621
26.4812
26.3749
32.1146
32.0649
47.0244
62.4938
79.0262
97.2264
116.729
137.024
157.18
175.814
191.19
201.505
205.339
202.127
192.372
177.445
159.123
139.134
118.873
99.2882
80.9089
64.1265
48.3389
32.9986
33.0184
38.7626
38.752
57.0705
76.261
97.1002
120.417
145.853
172.822
200.115
225.807
247.35
261.969
267.413
262.775
248.875
227.897
202.584
175.481
148.533
122.974
99.4187
78.26
58.6727
39.886
39.8574
45.4777
45.6141
67.4911
90.7364
116.414
145.649
178.166
213.356
249.725
284.673
314.52
335.054
342.725
336.083
316.454
287.301
252.8
216.635
181.438
148.743
119.198
93.1213
69.3927
46.9549
46.7667
52.0596
52.4428
77.977
105.507
136.454
172.327
213.044
258.074
305.682
352.474
393.274
421.788
432.49
423.08
395.688
355.723
309.44
262.037
216.955
175.99
139.723
108.288
80.1823
53.9912
53.5406
58.22
58.9274
88.0439
119.884
156.288
199.241
248.985
305.223
366.087
427.35
481.959
520.795
535.462
522.39
484.916
431.287
370.588
309.911
253.56
203.483
160.042
123.054
90.5441
60.6756
59.8833
63.6001
64.6664
97.0443
132.907
174.544
224.474
283.393
351.406
426.697
504.272
575.01
626.227
645.711
628.15
578.546
508.93
431.954
356.816
288.614
229.267
178.751
136.436
99.8137
66.5954
65.4261
67.8135
69.2125
104.237
143.433
189.509
245.502
312.616
391.473
480.476
574.119
661.264
725.419
749.994
727.66
665.356
579.453
486.43
397.531
318.405
250.772
194.102
147.264
107.229
71.29
69.7717
70.5072
72.1438
108.905
150.324
199.412
259.597
332.496
419.191
518.373
624.274
724.282
798.771
827.445
801.267
728.815
630.135
524.858
425.734
338.703
265.211
204.28
154.368
112.054
74.3249
72.5567
71.4316
73.1536
110.519
152.719
202.875
264.561
339.56
429.137
532.121
642.675
747.635
826.142
856.423
828.768
752.39
648.799
538.868
435.917
345.968
270.34
207.873
156.862
113.741
75.3829
73.5235
70.4967
72.1295
108.884
150.294
199.373
259.546
332.435
419.118
518.293
624.195
724.22
798.743
827.467
801.337
728.919
630.253
524.974
425.839
338.792
265.284
204.338
154.413
112.087
74.3466
72.5779
67.7937
69.1857
104.197
143.378
189.437
245.411
312.506
391.344
480.337
573.984
661.16
725.377
750.036
727.785
665.539
579.662
486.638
397.721
318.569
250.908
194.211
147.349
107.292
71.3313
69.8119
63.5733
64.6301
96.9904
132.833
174.449
224.356
283.252
351.247
426.528
504.115
574.893
626.186
645.769
628.305
578.773
509.192
432.218
357.061
288.828
229.448
178.898
136.552
99.8995
66.6519
65.4819
58.1888
58.8854
87.982
119.8
156.182
199.111
248.834
305.056
365.916
427.196
481.852
520.765
535.531
522.556
485.156
431.566
370.873
310.18
253.8
203.688
160.21
123.188
90.6448
60.7424
59.95
52.0268
52.3987
77.9127
105.421
136.346
172.198
212.897
257.916
305.526
352.34
393.187
421.774
432.566
423.243
395.919
355.993
309.721
262.306
217.2
176.202
139.899
108.43
80.29
54.063
53.6132
45.4456
45.571
67.4289
90.6542
116.312
145.53
178.033
213.217
249.593
284.564
314.456
335.054
342.802
336.234
316.665
287.548
253.059
216.887
181.671
148.948
119.371
93.2619
69.5004
47.0271
46.8405
38.7331
38.7124
57.014
76.187
97.0101
120.313
145.74
172.706
200.008
225.724
247.306
261.98
267.487
262.911
249.06
228.113
202.813
175.707
148.744
123.162
99.5793
78.3919
58.7744
39.9546
39.9283
32.0891
32.0305
46.9756
62.4306
78.9502
97.1403
116.637
136.933
157.099
175.754
191.164
201.523
205.407
202.244
192.528
177.627
159.317
139.328
119.056
99.4529
81.0509
64.2441
48.4303
33.0606
33.0829
25.6349
25.7082
37.577
49.716
62.506
76.3814
91.0169
106.003
120.651
133.992
144.865
152.106
154.819
152.651
145.902
135.425
122.361
107.864
92.91
78.2035
64.1712
51.1608
38.7404
26.5345
26.4304
19.2745
19.558
28.5229
37.6146
47.0792
57.2163
67.7662
78.4216
88.6961
97.9353
105.385
110.308
112.154
110.704
106.139
98.9822
89.952
79.7967
69.1737
58.5786
48.3302
38.7042
29.4028
20.1842
19.8724
13.1657
13.5104
19.5734
25.7538
32.1255
38.8787
45.8323
52.7787
59.4051
65.305
70.0222
73.1222
74.2841
73.3817
70.5182
65.996
60.2376
53.6942
46.7736
39.7935
32.9687
26.4905
20.1694
13.9374
13.5722
8.81861
13.1724
19.2983
25.69
32.1935
38.9073
45.7113
52.4051
58.6982
64.2265
68.5954
71.4413
72.5024
71.677
69.0476
64.8594
59.465
53.2533
46.5882
39.7631
32.9842
26.3784
19.8501
13.566
9.08562
13.6804
16.186
24.1433
31.8177
39.7191
47.9495
56.3155
64.5767
72.3697
79.2363
84.6758
88.222
89.5371
88.4907
85.1917
79.9597
73.2482
65.5513
57.3264
48.9399
40.638
32.623
24.7965
16.6436
14.0663
16.176
10.8667
17.2711
22.0196
27.249
32.965
38.9435
45.0315
50.9413
56.2877
60.6211
63.497
64.5777
63.7293
61.0647
56.905
51.6844
45.8483
39.7835
33.7828
28.0049
22.6851
17.824
11.2322
16.6547
24.1112
17.2567
27.6578
35.5292
44.2502
53.8145
63.904
74.274
84.4375
93.7173
101.299
106.359
108.258
106.744
102.034
94.7366
85.6597
75.6121
65.2745
55.1434
45.4736
36.6009
28.5432
17.8389
24.8313
31.7455
21.975
35.4878
45.6977
57.2226
70.0877
83.9086
98.382
112.833
126.263
137.406
144.923
147.748
145.453
138.413
127.652
114.486
100.178
85.7348
71.8463
58.8321
47.1012
36.6443
22.7315
32.7004
39.5841
27.1551
44.1371
57.1422
72.0913
89.0918
107.736
127.68
148.026
167.33
183.639
194.787
198.984
195.501
184.987
169.174
150.203
130.022
110.096
91.3446
74.1379
58.9158
45.5918
28.1023
40.7819
47.7258
32.7999
53.5943
69.8802
88.9527
111.077
135.9
163.09
191.512
219.127
242.961
259.51
265.759
260.457
244.738
221.536
194.323
166.081
138.88
113.894
91.489
72.0619
55.3731
33.9539
49.1772
55.9755
38.6828
63.5365
83.5197
107.387
135.672
168.205
204.783
244.077
283.306
318.012
342.567
351.885
343.81
320.327
286.407
247.647
208.53
171.89
139.116
110.457
86.1385
65.6572
40.0533
57.686
64.0933
44.6505
73.7179
97.7537
127.043
162.532
204.426
252.865
306.466
361.618
411.791
448.075
461.945
449.692
414.772
365.558
310.932
257.479
208.899
166.658
130.682
100.829
76.1905
46.2421
66.0614
71.7194
50.4176
83.6541
111.909
147.022
190.514
243.216
305.921
377.502
453.546
524.88
577.745
598.148
579.821
528.665
458.472
382.988
311.493
248.534
195.353
151.241
115.443
86.4736
52.2254
73.9332
78.4027
55.6043
92.6764
124.998
165.887
217.586
281.794
360.322
452.729
554.098
652.216
726.907
756.084
729.515
656.914
560.111
459.307
366.887
287.961
223.124
170.664
128.962
95.817
57.6105
80.8369
83.6531
59.7707
99.9862
135.772
181.714
240.803
315.731
409.562
522.977
651.028
778.894
878.739
918.219
881.904
784.528
658.121
530.605
417.053
322.669
246.959
186.973
140.102
103.396
61.9421
86.2672
87.0178
62.4851
104.78
142.925
192.377
256.716
339.468
444.816
574.581
724.242
877.122
998.77
1047.29
1002.41
883.539
732.218
583.041
453.023
346.988
263.33
197.986
147.518
108.381
64.7729
89.7566
88.1734
63.4243
106.446
145.427
196.139
262.389
348.031
457.708
593.746
751.899
914.826
1045.36
1097.59
1049.25
921.655
760.33
602.629
466.273
355.837
269.225
201.917
150.146
110.137
65.7669
90.9703
87.0031
62.468
104.753
142.886
192.325
256.647
339.377
444.702
574.446
724.098
876.996
998.703
1047.32
1002.53
883.72
732.413
583.222
453.177
347.113
263.428
198.061
147.574
108.422
64.7971
89.7855
83.6255
59.7389
99.9361
135.701
181.619
240.678
315.571
409.365
522.749
650.79
778.692
878.638
918.272
882.11
784.832
658.455
530.92
417.326
322.893
247.138
187.111
140.207
103.473
61.9877
86.3221
78.3654
55.5616
92.61
124.905
165.765
217.428
281.596
360.085
452.463
553.831
652
726.809
756.156
729.757
657.27
560.508
459.691
367.228
288.248
223.356
170.847
129.102
95.9215
57.6724
80.9128
71.6762
50.3686
83.5787
111.806
146.887
190.344
243.01
305.681
377.244
453.298
524.691
577.673
598.234
580.064
529.019
458.873
383.386
311.855
248.846
195.611
151.448
115.604
86.5952
52.2977
74.0236
64.0481
44.5996
73.6406
97.6492
126.909
162.367
204.232
252.647
306.241
361.412
411.645
448.034
462.038
449.918
415.096
365.93
311.308
257.829
209.207
166.919
130.895
100.998
76.3192
46.319
66.1595
55.9315
38.6336
63.4628
83.4214
107.264
135.524
168.035
204.599
243.893
283.146
317.909
342.552
351.979
344.01
320.608
286.732
247.982
208.849
172.177
139.363
110.662
86.3027
65.7845
40.1297
57.7854
47.6856
32.755
53.5279
69.7929
88.8451
110.951
135.759
162.942
191.37
219.011
242.894
259.514
265.849
260.629
244.974
221.811
194.61
166.358
139.134
114.117
91.6767
72.2142
55.4924
34.0258
49.2725
39.5494
27.1162
44.0805
57.0685
72.0019
88.9888
107.624
127.566
147.921
167.249
183.599
194.803
199.065
195.644
185.18
169.399
150.44
130.255
110.312
91.5369
74.3018
59.0503
45.6982
28.1667
40.8686
31.7174
21.9431
35.4419
45.6385
57.1519
70.0076
83.8234
98.2977
112.759
126.21
137.385
144.945
147.818
145.57
138.567
127.831
114.677
100.367
85.912
72.0057
58.9695
47.215
36.7351
22.7867
32.7751
24.0901
17.2325
27.6233
35.4851
44.1982
53.7567
63.8439
74.2166
84.3894
93.6863
101.294
106.385
108.319
106.838
102.155
94.8766
85.8085
75.7606
65.4152
55.271
45.5845
36.6934
28.6173
17.8843
24.8912
16.1618
10.8497
17.2472
21.9891
27.2131
32.9251
38.902
44.9916
50.9071
56.264
60.6127
63.5078
64.6094
63.7812
61.1336
56.9858
51.7713
45.936
39.8675
33.8596
28.0722
22.7417
17.8699
11.2602
16.6959
13.6724
16.1729
24.1249
31.7948
39.6931
47.9226
56.2905
64.5572
72.36
79.2411
84.6992
88.2671
89.6048
88.5796
85.298
80.0779
73.372
65.6748
57.4442
49.0476
40.7324
32.702
24.8585
16.6856
14.1031
19.0591
18.0693
28.0829
36.4225
45.3283
54.6581
64.1761
73.6269
82.5871
90.5224
96.8393
100.976
102.521
101.313
97.485
91.4262
83.6826
74.8399
65.4323
55.8879
46.4693
37.4238
28.9063
18.6241
19.6234
18.0539
6.79527
13.7514
16.3029
20.0715
24.2774
28.7978
33.5628
38.3287
42.7627
46.4472
48.9435
49.9034
49.1848
46.9062
43.3978
39.0879
34.3916
29.6448
25.0984
20.8283
16.9672
14.3246
7.12658
18.641
28.0389
13.7389
26.0695
31.9336
39.7815
48.4115
57.6636
67.3846
77.1047
86.1585
93.6937
98.8013
100.751
99.243
94.5329
87.3171
78.4861
68.8883
59.1959
49.8916
41.1406
33.1191
27.0767
14.3372
28.9539
36.3267
16.2593
31.8851
38.9276
48.8254
59.9955
72.2956
85.5761
99.2181
112.254
123.347
130.989
133.912
131.592
124.487
113.814
101.06
87.561
74.2979
61.9123
50.5721
40.4421
33.1704
17.0122
37.5266
45.1525
19.978
39.6519
48.7374
61.7425
76.7679
93.7506
112.579
132.452
151.949
168.934
180.837
185.4
181.668
170.494
154.063
134.918
115.204
96.3687
79.2478
63.9817
50.664
41.2769
20.9251
46.6569
54.3699
24.1113
48.1605
59.7672
76.6134
96.5863
119.821
146.352
175.229
204.433
230.586
249.294
256.495
250.429
232.696
207.256
178.475
149.755
123.168
99.7159
79.4087
62.1504
50.1549
25.2703
56.1942
63.7408
28.5335
57.2451
71.8654
93.3605
119.564
151.014
188.108
229.895
273.639
314.077
343.726
355.217
345.269
316.915
277.375
234.114
192.453
155.215
123.435
96.7747
74.746
59.6341
29.9183
65.8936
73.0102
33.1738
66.75
84.8767
111.86
145.714
187.693
238.952
298.906
364.138
426.732
473.965
492.465
476.059
430.531
369.044
304.329
244.422
192.882
150.416
115.951
88.2886
69.5517
34.7941
75.492
81.7591
37.79
76.2079
98.1821
131.308
174.074
228.878
298.244
382.671
478.487
574.106
648.753
678.421
651.575
579.144
484.851
389.538
305.011
235.165
179.671
136.105
102.137
79.4224
39.6449
84.5568
89.462
42.055
84.9624
110.823
150.29
202.625
271.818
362.526
477.433
613.34
754.875
869.52
915.957
873.257
761.426
621.419
485.929
370.698
279.251
209.125
155.781
115.299
88.5644
44.1291
92.5446
95.5389
45.5614
92.179
121.488
166.7
228.022
311.282
423.895
571.574
753.215
950.685
1116.92
1185.71
1121.7
958.901
763.107
581.723
433.435
319.789
235.342
172.806
126.414
96.1107
47.8208
98.8553
99.4458
47.8852
96.9754
128.704
178.019
245.942
339.877
469.74
644.438
865.682
1114.46
1330.51
1421.43
1336.25
1124.17
877.137
655.96
480.377
349.221
253.885
184.581
133.959
101.143
50.2769
102.925
100.789
48.695
98.6522
131.252
182.063
252.431
350.398
486.925
672.35
909.843
1180.46
1418.31
1519.04
1424.58
1191
922.141
684.591
498.123
360.162
260.681
188.846
136.665
102.933
51.1497
104.345
99.4261
47.8647
96.9411
128.654
177.949
245.843
339.74
469.555
644.2
865.403
1114.19
1330.34
1421.47
1336.48
1124.52
877.484
656.258
480.613
349.401
254.018
184.679
134.029
101.195
50.3044
102.963
95.5021
45.5234
92.1159
121.397
166.573
227.847
311.045
423.584
571.185
752.777
950.274
1116.68
1185.78
1122.07
959.447
763.673
582.224
433.843
320.106
235.583
172.985
126.545
96.2069
47.8721
98.927
89.4124
42.0046
84.8795
110.706
150.129
202.409
271.534
362.166
477.001
612.874
754.464
869.303
916.052
873.664
762.02
622.055
486.512
371.189
279.644
209.431
156.014
115.471
88.6933
44.198
92.6432
81.702
37.7329
76.1151
98.0531
131.135
173.848
228.591
297.895
382.272
478.079
573.768
648.596
678.533
651.954
579.695
485.457
390.114
305.512
235.58
180.003
136.363
102.332
79.5707
39.7244
84.6738
72.9506
33.1152
66.6562
84.7485
111.693
145.501
187.432
238.646
298.573
363.816
426.486
473.872
492.584
476.387
431.002
369.573
304.848
244.889
193.28
150.744
116.211
88.4892
69.707
34.8774
75.6185
63.6832
28.4775
57.1568
71.7467
93.2087
119.377
150.792
187.858
229.636
273.402
313.911
343.684
355.334
345.543
317.302
277.816
234.557
192.863
155.575
123.738
97.0209
74.939
59.7862
29.9998
66.0213
54.3175
24.0608
48.082
59.6634
76.4836
96.4302
119.642
146.158
175.037
204.268
230.482
249.286
256.604
250.654
233.007
207.614
178.841
150.102
123.479
99.9836
79.6305
62.327
50.2962
25.3461
56.3162
45.1073
19.9347
39.5856
48.6509
61.6363
76.6433
93.6119
112.434
132.314
151.838
168.873
180.849
185.497
181.849
170.739
154.345
135.212
115.488
96.6279
79.4749
64.1729
50.8184
41.4022
20.9923
46.7676
36.29
16.2238
31.8316
38.8586
48.7422
59.8999
72.1918
85.4712
99.1227
112.182
123.314
131.009
133.994
131.733
124.675
114.032
101.289
87.7847
74.5055
62.0968
50.7296
40.5708
33.2759
17.069
37.6219
28.0115
13.712
26.0296
31.8827
39.7211
48.3437
57.5923
67.3154
77.0457
86.1195
93.6852
98.8322
100.825
99.3598
94.6836
87.4898
78.668
69.068
59.3644
50.0431
41.2713
33.2268
27.1653
14.386
29.0314
18.0353
6.77672
13.7244
16.2684
20.0306
24.2314
28.7489
33.5145
38.2857
42.7306
46.4319
48.95
49.9342
49.239
46.9798
43.4846
39.181
34.4848
29.7331
25.1784
20.8978
17.025
14.3734
7.15167
18.6916
19.0473
18.0523
28.0591
36.3927
45.2945
54.6229
64.1431
73.6008
82.5735
90.5275
96.8687
101.034
102.609
101.428
97.6229
91.5795
83.843
74.9994
65.5839
56.0263
46.5903
37.525
28.9868
18.6759
19.6785
24.717
18.7702
31.1294
39.4218
48.9787
58.9536
69.1767
79.3895
89.1245
97.7962
104.74
109.313
111.037
109.723
105.524
98.8924
90.4504
80.8546
70.6913
60.435
50.3529
40.6271
32.1387
19.4157
25.4936
18.748
1.84908
9.36791
9.0922
11.2347
13.5082
16.1541
19.1575
22.3431
25.471
28.1926
30.1085
30.8789
30.3591
28.6672
26.1231
23.1164
19.9949
17.0034
14.3268
11.9878
9.74586
9.96274
2.13624
19.44
31.0718
9.35903
23.707
26.7571
33.573
40.7384
48.6293
57.132
65.8314
74.1344
81.2065
86.1005
88.0135
86.6064
82.1642
75.4497
67.3904
58.8192
50.3396
42.3839
35.082
28.0616
24.8538
9.97139
32.201
39.2994
9.0514
26.6995
29.3218
37.1796
45.7182
55.5515
66.6213
78.4332
90.1564
100.486
107.812
110.691
108.497
101.772
91.9032
80.4761
68.802
57.7328
47.7926
39.0633
30.9371
28.1231
9.78797
40.7586
48.7576
11.1442
33.4243
37.085
47.6621
59.5396
73.6454
90.028
108.09
126.599
143.383
155.542
160.326
156.514
145.191
129.022
110.884
92.9659
76.5436
62.2608
50.1067
39.1623
35.2395
12.0815
50.5893
58.5946
13.3445
40.4525
45.4704
59.3687
75.5946
95.5584
119.594
147.124
176.416
203.911
224.359
232.442
225.727
206.426
179.73
150.872
123.461
99.3063
79.0593
62.4398
48.0522
42.6858
14.4965
60.8176
68.6371
15.8904
48.1535
55.0808
73.2113
95.2695
123.437
158.692
200.803
247.542
293.197
328.212
342.178
330.148
296.703
252.064
205.798
163.73
128.217
99.6079
76.9979
58.2252
50.8409
17.2771
71.2647
78.6272
18.7651
56.4097
65.8504
89.2216
118.869
158.213
209.538
273.717
348.443
424.817
485.633
510.236
488.394
429.722
354.606
280.334
216.032
164.228
124.216
93.8079
69.6075
59.5786
20.402
81.663
88.1025
21.7944
64.8078
77.2817
106.793
145.793
199.604
272.913
369.278
487.633
615.34
721.449
765.225
725.392
622.19
495.98
377.949
281.164
207.042
152.256
112.236
81.6776
68.4651
23.6853
91.5326
96.4879
24.7438
72.7639
88.553
124.696
174.3
245.348
346.429
486.255
667.758
873.721
1054.3
1131.03
1059.87
883.147
678.86
497.39
356.679
254.332
181.926
131.002
93.5739
76.8863
26.8765
100.276
103.135
27.2756
79.4645
98.3849
140.793
200.864
289.758
421.168
611.905
871.33
1186.04
1477.89
1606.7
1485.53
1198.59
885.564
625.687
433.462
300.248
209.581
147.881
103.958
83.9878
29.6165
107.219
107.425
29.0069
83.9943
105.214
152.25
220.328
323.397
480.073
715.416
1048.53
1473.91
1889.24
2078.48
1899
1489.51
1065.67
731.518
494.079
335.1
229.894
159.929
111.197
88.8086
31.4984
111.716
108.902
29.6178
85.5904
107.658
156.411
227.525
336.098
502.861
756.606
1121.68
1598.01
2072.96
2292.14
2084.01
1615.41
1140.46
773.972
517.77
348.425
237.519
164.384
113.84
90.5451
32.1821
113.291
107.399
28.9824
83.951
105.15
152.155
220.187
323.19
479.77
714.986
1047.97
1473.29
1888.79
2078.51
1899.52
1490.22
1066.32
732.029
494.452
335.364
230.078
160.058
111.286
88.8732
31.53
111.765
103.087
27.2308
79.3855
98.2692
140.625
200.62
289.408
420.674
611.238
870.498
1185.17
1477.3
1606.78
1486.28
1199.63
886.568
626.509
434.084
300.701
209.907
148.113
104.121
84.1072
29.6749
107.311
96.4237
24.685
72.6615
88.4058
124.487
174.006
244.943
345.883
485.552
666.938
872.927
1053.82
1131.16
1060.6
884.188
679.91
498.295
357.395
254.875
182.33
131.297
93.7853
77.0447
26.954
100.401
88.029
21.7286
64.6948
77.1227
106.574
145.495
199.21
272.408
368.665
486.96
614.739
721.13
765.376
726.011
623.078
496.914
378.791
281.864
207.596
152.682
112.558
81.9127
68.6453
23.7732
91.6803
78.5512
18.6986
56.297
65.6954
89.0135
118.597
157.867
209.115
273.233
347.947
424.407
485.451
510.394
488.887
430.426
355.371
281.055
216.656
164.742
124.625
94.1257
69.8453
59.7652
20.4926
81.8218
68.5639
15.8277
48.0489
54.9398
73.0272
95.0362
123.152
158.361
200.444
247.197
292.937
328.126
342.329
330.532
297.245
252.667
206.387
164.258
128.668
99.9776
77.2927
58.4504
51.0217
17.3644
71.4244
58.5283
13.2886
40.3606
45.3489
59.2141
75.4048
95.3348
119.345
146.868
176.186
203.756
224.332
232.58
226.025
206.839
180.197
151.339
123.894
99.6858
79.3792
62.701
48.2554
42.8523
14.5766
60.9697
48.7008
11.0967
33.3475
36.9852
47.538
59.3913
73.4769
89.8473
107.914
126.45
143.295
155.548
160.446
156.744
145.504
129.379
111.248
93.3113
76.8538
62.5282
50.3293
39.3384
35.3863
12.1518
50.7269
39.2533
9.0125
26.6378
29.2426
37.0831
45.6058
55.4272
66.493
78.3131
90.062
100.438
107.831
110.788
108.669
102.003
92.1673
80.7498
69.0663
57.9745
48.0046
39.2427
31.0809
28.245
9.84601
40.8766
31.0374
9.32953
23.6611
26.6989
33.5037
40.6598
48.5457
57.0497
65.7603
74.0864
81.1953
86.1381
88.1063
86.7517
82.3511
75.6622